 VARIABLES =X,Y,D,E,U,V
 ZONE I=          59 , J=         425  F=POINT
   0.2847518727772908E-03   0.6986325774175351E-03   0.3464254893147614E+01   0.1763000000000000E+02   0.0000000000000000E+00   0.0000000000000000E+00
   0.2972751218423771E-03   0.7110739493082854E-03   0.3348171132225254E+01   0.1763000000000000E+02   0.0000000000000000E+00   0.0000000000000000E+00
   0.3099687039423263E-03   0.7231797788101837E-03   0.3231082086002916E+01   0.1763000000000000E+02   0.0000000000000000E+00   0.0000000000000000E+00
   0.3228275545128884E-03   0.7349357282975881E-03   0.3113080713256503E+01   0.1763000000000000E+02   0.0000000000000000E+00   0.0000000000000000E+00
   0.3358467317728265E-03   0.7463267640969168E-03   0.2994327015696602E+01   0.1763000000000000E+02   0.0000000000000000E+00   0.0000000000000000E+00
   0.3490214140161101E-03   0.7573375574476107E-03   0.2875053137574035E+01   0.1763000000000000E+02   0.0000000000000000E+00   0.0000000000000000E+00
   0.3623468969606271E-03   0.7679529115832307E-03   0.2755565433774223E+01   0.1763000000000000E+02   0.0000000000000000E+00   0.0000000000000000E+00
   0.3758185911522877E-03   0.7781582008844097E-03   0.2636243027281920E+01   0.1763000000000000E+02   0.0000000000000000E+00   0.0000000000000000E+00
   0.3894320194234013E-03   0.7879398085311265E-03   0.2517532870364315E+01   0.1763000000000000E+02   0.0000000000000000E+00   0.0000000000000000E+00
   0.4031828144042256E-03   0.7972855498263600E-03   0.2399941060742005E+01   0.1763000000000000E+02   0.0000000000000000E+00   0.0000000000000000E+00
   0.4170667160866439E-03   0.8061850693440505E-03   0.2284020473341136E+01   0.1763000000000000E+02   0.0000000000000000E+00   0.0000000000000000E+00
   0.4310795694388691E-03   0.8146302012371328E-03   0.2170355083755704E+01   0.1763000000000000E+02   0.0000000000000000E+00   0.0000000000000000E+00
   0.4452173220701898E-03   0.8226152833913183E-03   0.2059541620759326E+01   0.1763000000000000E+02   0.0000000000000000E+00   0.0000000000000000E+00
   0.4594760219447346E-03   0.8301374175917377E-03   0.1952169444184023E+01   0.1763000000000000E+02   0.0000000000000000E+00   0.0000000000000000E+00
   0.4738518151432366E-03   0.8371966694476859E-03   0.1848799769607484E+01   0.1763000000000000E+02   0.0000000000000000E+00   0.0000000000000000E+00
   0.4883409436718727E-03   0.8437962034614837E-03   0.1749945362007991E+01   0.1763000000000000E+02   0.0000000000000000E+00   0.0000000000000000E+00
   0.5029397433171928E-03   0.8499423502979655E-03   0.1656052733026498E+01   0.1763000000000000E+02   0.0000000000000000E+00   0.0000000000000000E+00
   0.5176446415462133E-03   0.8556446049804804E-03   0.1567487162480435E+01   0.1763000000000000E+02   0.0000000000000000E+00   0.0000000000000000E+00
   0.5324521554507660E-03   0.8609155563783899E-03   0.1484521680699808E+01   0.1763000000000000E+02   0.0000000000000000E+00   0.0000000000000000E+00
   0.5473588897351991E-03   0.8657707499331664E-03   0.1407331369721690E+01   0.1763000000000000E+02   0.0000000000000000E+00   0.0000000000000000E+00
   0.5623615347465609E-03   0.8702284870710416E-03   0.1335992405930530E+01   0.1763000000000000E+02   0.0000000000000000E+00   0.0000000000000000E+00
   0.5774568645463875E-03   0.8743095661480003E-03   0.1270485406491889E+01   0.1763000000000000E+02   0.0000000000000000E+00   0.0000000000000000E+00
   0.5926417350232637E-03   0.8780369710487429E-03   0.1210703302207834E+01   0.1763000000000000E+02   0.0000000000000000E+00   0.0000000000000000E+00
   0.6079130820453332E-03   0.8814355146986931E-03   0.1156460994196478E+01   0.1763000000000000E+02   0.0000000000000000E+00   0.0000000000000000E+00
   0.6232679196519235E-03   0.8845314457335711E-03   0.1107508844624809E+01   0.1763000000000000E+02   0.0000000000000000E+00   0.0000000000000000E+00
   0.6387033382835204E-03   0.8873520273935066E-03   0.1063545545496502E+01   0.1763000000000000E+02   0.0000000000000000E+00   0.0000000000000000E+00
   0.6542165030492946E-03   0.8899250983596768E-03   0.1024231573316229E+01   0.1763000000000000E+02   0.0000000000000000E+00   0.0000000000000000E+00
   0.6698046520314144E-03   0.8922786257251420E-03   0.9892020934146462E+00   0.1763000000000000E+02   0.0000000000000000E+00   0.0000000000000000E+00
   0.6854650946254060E-03   0.8944402605842251E-03   0.9580785534092546E+00   0.1763000000000000E+02   0.0000000000000000E+00   0.0000000000000000E+00
   0.7011952099158208E-03   0.8964369068351860E-03   0.9304787688726488E+00   0.1763000000000000E+02   0.0000000000000000E+00   0.0000000000000000E+00
   0.7169924450865083E-03   0.8982943137195574E-03   0.9060254433740835E+00   0.1763000000000000E+02   0.0000000000000000E+00   0.0000000000000000E+00
   0.7328543138647426E-03   0.9000367023710867E-03   0.8843531099918465E+00   0.1763000000000000E+02   0.0000000000000000E+00   0.0000000000000000E+00
   0.7487783949985876E-03   0.9016864362217957E-03   0.8651135611198562E+00   0.1763000000000000E+02   0.0000000000000000E+00   0.0000000000000000E+00
   0.7647623307667549E-03   0.9032637445182113E-03   0.8479801452758353E+00   0.1763000000000000E+02   0.0000000000000000E+00   0.0000000000000000E+00
   0.7808038255203302E-03   0.9047865074442686E-03   0.8326508363869614E+00   0.1763000000000000E+02   0.0000000000000000E+00   0.0000000000000000E+00
   0.7969006442557193E-03   0.9062701104372004E-03   0.8188504422490117E+00   0.1763000000000000E+02   0.0000000000000000E+00   0.0000000000000000E+00
   0.8130506112181598E-03   0.9077273742281245E-03   0.8063318509826274E+00   0.1763000000000000E+02   0.0000000000000000E+00   0.0000000000000000E+00
   0.8292516085352009E-03   0.9091685659500516E-03   0.7948768027691917E+00   0.1763000000000000E+02   0.0000000000000000E+00   0.0000000000000000E+00
   0.8455015748795379E-03   0.9106014953436527E-03   0.7842966559217837E+00   0.1763000000000000E+02   0.0000000000000000E+00   0.0000000000000000E+00
   0.8617985041605925E-03   0.9120316986664099E-03   0.7744325961716070E+00   0.1763000000000000E+02   0.0000000000000000E+00   0.0000000000000000E+00
   0.8781404442442917E-03   0.9134627113855184E-03   0.7651544623977056E+00   0.1763000000000000E+02   0.0000000000000000E+00   0.0000000000000000E+00
   0.8945254957004447E-03   0.9148964291208932E-03   0.7563575644401517E+00   0.1763000000000000E+02   0.0000000000000000E+00   0.0000000000000000E+00
   0.9109518105772026E-03   0.9163335546138111E-03   0.7479608065986587E+00   0.1763000000000000E+02   0.0000000000000000E+00   0.0000000000000000E+00
   0.9274175912020259E-03   0.9177741237546980E-03   0.7399178365427461E+00   0.1763000000000000E+02   0.0000000000000000E+00   0.0000000000000000E+00
   0.9439210890086897E-03   0.9192179927213062E-03   0.7322027320484190E+00   0.1763000000000000E+02   0.0000000000000000E+00   0.0000000000000000E+00
   0.9604606033897638E-03   0.9206650127298740E-03   0.7247874592674026E+00   0.1763000000000000E+02   0.0000000000000000E+00   0.0000000000000000E+00
   0.9770344805741229E-03   0.9221150390941764E-03   0.7176469324993826E+00   0.1763000000000000E+02   0.0000000000000000E+00   0.0000000000000000E+00
   0.9936411125290102E-03   0.9235679311295764E-03   0.7107609564894906E+00   0.1763000000000000E+02   0.0000000000000000E+00   0.0000000000000000E+00
   0.1010278935886177E-02   0.9250235520590751E-03   0.7041126362689665E+00   0.1763000000000000E+02   0.0000000000000000E+00   0.0000000000000000E+00
   0.1026946430891712E-02   0.9264817689214345E-03   0.6976868579711721E+00   0.1763000000000000E+02   0.0000000000000000E+00   0.0000000000000000E+00
   0.1043642120379111E-02   0.9279424524813308E-03   0.6914697547492368E+00   0.1763000000000000E+02   0.0000000000000000E+00   0.0000000000000000E+00
   0.1060364568765247E-02   0.9294054771415150E-03   0.6854486571857885E+00   0.1763000000000000E+02   0.0000000000000000E+00   0.0000000000000000E+00
   0.1077112381068868E-02   0.9308707208569418E-03   0.6796120602483746E+00   0.1763000000000000E+02   0.0000000000000000E+00   0.0000000000000000E+00
   0.1093884201951302E-02   0.9323380650508422E-03   0.6739495022360369E+00   0.1763000000000000E+02   0.0000000000000000E+00   0.0000000000000000E+00
   0.1110678714779138E-02   0.9338073945327186E-03   0.6684514191233667E+00   0.1763000000000000E+02   0.0000000000000000E+00   0.0000000000000000E+00
   0.1127494640708586E-02   0.9352785974182370E-03   0.6631090244945961E+00   0.1763000000000000E+02   0.0000000000000000E+00   0.0000000000000000E+00
   0.1144330737791416E-02   0.9367515650510062E-03   0.6579142197956793E+00   0.1763000000000000E+02   0.0000000000000000E+00   0.0000000000000000E+00
   0.1161185800102305E-02   0.9382261919262321E-03   0.6528595226821088E+00   0.1763000000000000E+02   0.0000000000000000E+00   0.0000000000000000E+00
   0.1178058656887605E-02   0.9397023756162423E-03   0.6479380050461303E+00   0.1763000000000000E+02   0.0000000000000000E+00   0.0000000000000000E+00
   0.2828518687841865E-03   0.7005072198220305E-03   0.3457639240756802E+01   0.1768324382810043E+02   0.1161846822573166E+00   0.1178033997059226E+00
   0.2953789574056989E-03   0.7130216047324480E-03   0.3342530817311888E+01   0.1768194323007291E+02   0.1221342904612973E+00   0.1190014112091673E+00
   0.3080768658407535E-03   0.7252053718267480E-03   0.3226452268336972E+01   0.1768062674898593E+02   0.1284635255140835E+00   0.1201335826363642E+00
   0.3209406204101507E-03   0.7370449650104140E-03   0.3109503352648052E+01   0.1767929216210339E+02   0.1352066075698004E+00   0.1211754944770070E+00
   0.3339653864342950E-03   0.7485262018296546E-03   0.2991850384934748E+01   0.1767793756015204E+02   0.1423944743588051E+00   0.1220970656009430E+00
   0.3471464681436464E-03   0.7596346745878444E-03   0.2873730882385766E+01   0.1767656162541381E+02   0.1500535484177674E+00   0.1228630717920199E+00
   0.3604793090429086E-03   0.7703561766151025E-03   0.2755455210057741E+01   0.1767516395428457E+02   0.1582044321549567E+00   0.1234339424297167E+00
   0.3739594926892168E-03   0.7806771385904614E-03   0.2637404713096377E+01   0.1767374534155935E+02   0.1668604170302493E+00   0.1237668158482687E+00
   0.3875827437733764E-03   0.7905850598994833E-03   0.2520026272862343E+01   0.1767230807888113E+02   0.1760259404084792E+00   0.1238168800856257E+00
   0.4013449292838554E-03   0.8000689203046260E-03   0.2403823096115447E+01   0.1767085620614694E+02   0.1856948755907711E+00   0.1235389885629741E+00
   0.4152420593722787E-03   0.8091195576989182E-03   0.2289341817485914E+01   0.1766939568335965E+02   0.1958487225723038E+00   0.1228895158410934E+00
   0.4292702873134665E-03   0.8177299984271602E-03   0.2177156343433984E+01   0.1766793446194815E+02   0.2064546879230803E+00   0.1218283865294232E+00
   0.4434259076559676E-03   0.8258957276704107E-03   0.2067849128612698E+01   0.1766648239181100E+02   0.2174636677442923E+00   0.1203211931042942E+00
   0.4577053512995409E-03   0.8336148888542290E-03   0.1961990874498152E+01   0.1766505095694689E+02   0.2288081824942720E+00   0.1183413093834217E+00
   0.4721051758559610E-03   0.8408884032073072E-03   0.1860119811833030E+01   0.1766365278796433E+02   0.2404003503390287E+00   0.1158718377972835E+00
   0.4866220493434422E-03   0.8477200037912888E-03   0.1762721914909147E+01   0.1766230091951823E+02   0.2521300243030609E+00   0.1129074113393998E+00
   0.5012527251989318E-03   0.8541161828775698E-03   0.1670213647722933E+01   0.1766100783425297E+02   0.2638633975829048E+00   0.1094555811132951E+00
   0.5159940070056488E-03   0.8600860576412957E-03   0.1582928295187678E+01   0.1765978448300290E+02   0.2754427480921371E+00   0.1055378847822698E+00
   0.5308427024950492E-03   0.8656411665453938E-03   0.1501106694220990E+01   0.1765863891028955E+02   0.2866874102819863E+00   0.1011904984347966E+00
   0.5457955684829770E-03   0.8707952165727756E-03   0.1424893123289579E+01   0.1765757560019080E+02   0.2973973696178833E+00   0.9646437178170000E-01
   0.5608492513709189E-03   0.8755638078684263E-03   0.1354336217630276E+01   0.1765659412657527E+02   0.3073592981584984E+00   0.9142446120220094E-01
   0.5760002311720184E-03   0.8799641650143449E-03   0.1289394700801965E+01   0.1765568978339039E+02   0.3163565073752694E+00   0.8614876991792303E-01
   0.5912447796916086E-03   0.8840149009198083E-03   0.1229946929861625E+01   0.1765485307921936E+02   0.3241809294808712E+00   0.8072562687581360E-01
   0.6065789442070542E-03   0.8877358294019925E-03   0.1175802628153032E+01   0.1765407144657215E+02   0.3306478657195381E+00   0.7525062945066434E-01
   0.6219985657148362E-03   0.8911478275669069E-03   0.1126715908792942E+01   0.1765333034699945E+02   0.3356098168209146E+00   0.6982200669253597E-01
   0.6374993354116016E-03   0.8942727330369756E-03   0.1082398797211878E+01   0.1765261532020996E+02   0.3389696235519236E+00   0.6453560168602730E-01
   0.6530768856648957E-03   0.8971332488508919E-03   0.1042533828135124E+01   0.1765191368280156E+02   0.3406889106475083E+00   0.5947953667821794E-01
   0.6687269043907044E-03   0.8997528242879847E-03   0.1006785045899150E+01   0.1765121580967643E+02   0.3407917014123693E+00   0.5472933381527652E-01
   0.6844452567024794E-03   0.9021554839798937E-03   0.9748074106568162E+00   0.1765051592194461E+02   0.3393623446952529E+00   0.5034406994537201E-01
   0.7002280963475741E-03   0.9043655885506301E-03   0.9462545242000980E+00   0.1764981215883693E+02   0.3365383251268729E+00   0.4636405663693337E-01
   0.7160719519240717E-03   0.9064075240091098E-03   0.9207848323390031E+00   0.1764910612639360E+02   0.3324991620816371E+00   0.4281019801772314E-01
   0.7319737781319181E-03   0.9083053304911324E-03   0.8980665623837176E+00   0.1764840202839601E+02   0.3274529860622611E+00   0.3968497957420868E-01
   0.7479309687214347E-03   0.9100822911632268E-03   0.8777817189701461E+00   0.1764770567763255E+02   0.3216224929388524E+00   0.3697479000395495E-01
   0.7639413337681764E-03   0.9117605081291487E-03   0.8596293018391215E+00   0.1764702353121170E+02   0.3152316420494931E+00   0.3465307873844312E-01
   0.7800030483112330E-03   0.9133604941855047E-03   0.8433279131027553E+00   0.1764636183532690E+02   0.3084940147439276E+00   0.3268400972307353E-01
   0.7961145817479348E-03   0.9149008080532592E-03   0.8286178449074899E+00   0.1764572611342647E+02   0.3016037367592752E+00   0.3102594588274009E-01
   0.8122746177348873E-03   0.9163977572284326E-03   0.8152626822149631E+00   0.1764512078086180E+02   0.2947287978983366E+00   0.2963471097102501E-01
   0.8284819731247040E-03   0.9178651877212408E-03   0.8030505504368577E+00   0.1764454908389559E+02   0.2880068387074274E+00   0.2846641577074934E-01
   0.8447355222645836E-03   0.9193143744011109E-03   0.7917951722360683E+00   0.1764401281668654E+02   0.2815429460443340E+00   0.2747959453592940E-01
   0.8610341304056972E-03   0.9207540200069743E-03   0.7813366808090931E+00   0.1764351258244720E+02   0.2754097076870007E+00   0.2663678781734180E-01
   0.8773765975370283E-03   0.9221903655889579E-03   0.7715410055100652E+00   0.1764304788627851E+02   0.2696486129340011E+00   0.2590544825648493E-01
   0.8937616120349002E-03   0.9236274106117976E-03   0.7622973613598071E+00   0.1764261756586015E+02   0.2642721007330799E+00   0.2525817205814230E-01
   0.9101877123321102E-03   0.9250672374909134E-03   0.7535177451422583E+00   0.1764222031306669E+02   0.2592656345040910E+00   0.2467393037379258E-01
   0.9266532612949015E-03   0.9265104545696939E-03   0.7451418105377757E+00   0.1764185002062650E+02   0.2545879421365163E+00   0.2413916556551805E-01
   0.9431565269638932E-03   0.9279569768820366E-03   0.7371313166620036E+00   0.1764150248179595E+02   0.2501998143376943E+00   0.2364491108248931E-01
   0.9596958087578342E-03   0.9294066553737011E-03   0.7294510225440196E+00   0.1764117497360998E+02   0.2460689375802405E+00   0.2318543222659304E-01
   0.9762694529291795E-03   0.9308593450889378E-03   0.7220713969266341E+00   0.1764086541364325E+02   0.2421679330038460E+00   0.2275585181379619E-01
   0.9928758514680873E-03   0.9323149050811901E-03   0.7149685254851217E+00   0.1764057189708522E+02   0.2384736194157463E+00   0.2235252820360233E-01
   0.1009513441028574E-02   0.9337731983189658E-03   0.7081222571788180E+00   0.1764029281152031E+02   0.2349664775456786E+00   0.2197261513903719E-01
   0.1026180701878361E-02   0.9352340915937805E-03   0.7015148798674005E+00   0.1764002678697241E+02   0.2316299371848682E+00   0.2161380213272488E-01
   0.1042876156871954E-02   0.9366974554301403E-03   0.6951305252167745E+00   0.1763977268211278E+02   0.2284496948658886E+00   0.2127409261086336E-01
   0.1059598370446636E-02   0.9381631639975322E-03   0.6889549064419310E+00   0.1763952951677874E+02   0.2254132448574037E+00   0.2095174808449664E-01
   0.1076345947640971E-02   0.9396310950243892E-03   0.6829751389976095E+00   0.1763929644394067E+02   0.2225095542323530E+00   0.2064525558813008E-01
   0.1093117533135531E-02   0.9411011297139989E-03   0.6771795649055103E+00   0.1763907271784225E+02   0.2197288326968714E+00   0.2035329917657306E-01
   0.1109911810315586E-02   0.9425731526623440E-03   0.6715575876439472E+00   0.1763885767908611E+02   0.2170623471709158E+00   0.2007472540167594E-01
   0.1126727500355476E-02   0.9440470517778375E-03   0.6660995310726568E+00   0.1763865073922904E+02   0.2145022695794295E+00   0.1980851452239005E-01
   0.1143563361324571E-02   0.9455227182029536E-03   0.6607965249872443E+00   0.1763845137107797E+02   0.2120415497580008E+00   0.1955375861282542E-01
   0.1160418187314621E-02   0.9470000462377330E-03   0.6556404118271949E+00   0.1763825909921548E+02   0.2096738106462846E+00   0.1930964526996319E-01
   0.1177290807588542E-02   0.9484789332651662E-03   0.6506236686438240E+00   0.1763807349304479E+02   0.2073932612034957E+00   0.1907544446955872E-01
   0.2809518001135666E-03   0.7023819260407145E-03   0.3453526455870314E+01   0.1774890923677515E+02   0.2279587016801854E+00   0.2312188474595816E+00
   0.2934827284222065E-03   0.7149693264562157E-03   0.3339430139822674E+01   0.1774708960507274E+02   0.2394935550236222E+00   0.2335303449791031E+00
   0.3061849633396379E-03   0.7272310337959696E-03   0.3224396024749161E+01   0.1774530611609656E+02   0.2517462449989798E+00   0.2357127029512179E+00
   0.3190536220748059E-03   0.7391542735231890E-03   0.3108529599804908E+01   0.1774356195578888E+02   0.2647804094454562E+00   0.2377211036359564E+00
   0.3320839770534021E-03   0.7507257144328499E-03   0.2992002049782180E+01   0.1774186108510036E+02   0.2786532332827351E+00   0.2395003859656696E+00
   0.3452714584466637E-03   0.7619318699236137E-03   0.2875054628804528E+01   0.1774020870488726E+02   0.2934131560369606E+00   0.2409861329196183E+00
   0.3586116575511412E-03   0.7727595234558610E-03   0.2757999976373956E+01   0.1773861177997973E+02   0.3090974596011884E+00   0.2421062805409396E+00
   0.3721003309410844E-03   0.7831961620429817E-03   0.2641219891720028E+01   0.1773707945277943E+02   0.3257295709263991E+00   0.2427832106454214E+00
   0.3857334051726656E-03   0.7932304013141174E-03   0.2525159500531789E+01   0.1773562341532110E+02   0.3433162951447803E+00   0.2429363483283139E+00
   0.3995069816005410E-03   0.8028523855308444E-03   0.2410317664488689E+01   0.1773425810138583E+02   0.3618448002056937E+00   0.2424852291395989E+00
   0.4134173405452739E-03   0.8120541459459002E-03   0.2297233735700364E+01   0.1773300060477426E+02   0.3812794591536753E+00   0.2413529364974226E+00
   0.4274609435987867E-03   0.8208299011365348E-03   0.2186471120599194E+01   0.1773187024183259E+02   0.4015585281165064E+00   0.2394697582317322E+00
   0.4416344322606979E-03   0.8291762836182084E-03   0.2078598389690568E+01   0.1773088760371640E+02   0.4225906656454169E+00   0.2367768741547100E+00
   0.4559346203794327E-03   0.8370924784923674E-03   0.1974168985381192E+01   0.1773007304719730E+02   0.4442513649651102E+00   0.2332298780894138E+00
   0.4703584771118158E-03   0.8445802626362263E-03   0.1873700682657561E+01   0.1772944451529840E+02   0.4663794055883373E+00   0.2288017987479842E+00
   0.4849030965026007E-03   0.8516439376901066E-03   0.1777656189350618E+01   0.1772901464653147E+02   0.4887735013483563E+00   0.2234857500671847E+00
   0.4995656496533490E-03   0.8582901575374660E-03   0.1686426763728527E+01   0.1772878743172226E+02   0.5111898015895765E+00   0.2172965762655448E+00
   0.5143433162762857E-03   0.8645276614923849E-03   0.1600319211935141E+01   0.1772875477826701E+02   0.5333411318200116E+00   0.2102720087544752E+00
   0.5292331947523851E-03   0.8703669375755991E-03   0.1519547778737555E+01   0.1772889286356383E+02   0.5548983199937777E+00   0.2024730488134273E+00
   0.5442321940141643E-03   0.8758198542488778E-03   0.1444231493974124E+01   0.1772916019935919E+02   0.5754960954852336E+00   0.1939835123277736E+00
   0.5593369165160527E-03   0.8808993102840053E-03   0.1374396464405962E+01   0.1772949656678903E+02   0.5947437027041572E+00   0.1849089073243005E+00
   0.5745435482127916E-03   0.8856189563673411E-03   0.1309982603032384E+01   0.1772982539334094E+02   0.6122412663805769E+00   0.1753743258279702E+00
   0.5898477768065796E-03   0.8899930342839473E-03   0.1250855228230227E+01   0.1773005788378002E+02   0.6276015697883334E+00   0.1655217413201816E+00
   0.6052447609537546E-03   0.8940363585725794E-03   0.1196817196263632E+01   0.1773010070005906E+02   0.6404755591624817E+00   0.1555052875304072E+00
   0.6207291685680193E-03   0.8977644346266848E-03   0.1147623436633337E+01   0.1772986464970666E+02   0.6505777571366064E+00   0.1454855914525519E+00
   0.6362952915545511E-03   0.9011936742662904E-03   0.1102994180086019E+01   0.1772927443186843E+02   0.6577102449698193E+00   0.1356228141450509E+00
   0.6519372294870935E-03   0.9043416447127838E-03   0.1062627501139237E+01   0.1772827690113562E+02   0.6617793723277482E+00   0.1260690393259473E+00
   0.6676491200626821E-03   0.9072272772779738E-03   0.1026209488013156E+01   0.1772684648007084E+02   0.6628040434600356E+00   0.1169607234380500E+00
   0.6834253840635294E-03   0.9098709700073690E-03   0.9934222662803422E+00   0.1772498723280262E+02   0.6609142066891555E+00   0.1084120569262783E+00
   0.6992609498580792E-03   0.9122945401641571E-03   0.9639500159932417E+00   0.1772273114113776E+02   0.6563401221384759E+00   0.1005100809744570E+00
   0.7151514274273794E-03   0.9145210104782321E-03   0.9374833160732463E+00   0.1772013335846632E+02   0.6493942288724572E+00   0.9331200678034987E-01
   0.7310932124250179E-03   0.9165742400812838E-03   0.9137222479832932E+00   0.1771726538407168E+02   0.6404481991589435E+00   0.8684495526909149E-01
   0.7470835135972760E-03   0.9184784319056564E-03   0.8923787248818330E+00   0.1771420746702410E+02   0.6299079432306978E+00   0.8110793152328846E-01
   0.7631203088222638E-03   0.9202575609760895E-03   0.8731784613448415E+00   0.1771104141518668E+02   0.6181892394889135E+00   0.7607553572657116E-01
   0.7792022438430982E-03   0.9219347727914754E-03   0.8558626771720073E+00   0.1770784440631455E+02   0.6056955784026192E+00   0.7170293677358638E-01
   0.7953284924820119E-03   0.9235317994645324E-03   0.8401896795077934E+00   0.1770468461698568E+02   0.5928000414625114E+00   0.6793111979488350E-01
   0.8114985978362332E-03   0.9250684353748740E-03   0.8259364086679767E+00   0.1770161831094066E+02   0.5798312474054315E+00   0.6469239059762033E-01
   0.8277123115152589E-03   0.9265621055317499E-03   0.8128999286863932E+00   0.1769868882869250E+02   0.5670640888714364E+00   0.6191531855211387E-01
   0.8439694435726420E-03   0.9280275500512989E-03   0.8008984580803918E+00   0.1769592596447194E+02   0.5547138191982276E+00   0.5952904140036243E-01
   0.8602697306309641E-03   0.9294766382616909E-03   0.7897728054353352E+00   0.1769334722061014E+02   0.5429349086663336E+00   0.5746650752458727E-01
   0.8766127248278687E-03   0.9309183168880840E-03   0.7793869282089714E+00   0.1769095832699615E+02   0.5318212981954296E+00   0.5566685858140651E-01
   0.8929977023662011E-03   0.9323586893116519E-03   0.7696266467380041E+00   0.1768875738401360E+02   0.5214130162866193E+00   0.5407660803017604E-01
   0.9094235880765586E-03   0.9338012176689227E-03   0.7603954192904250E+00   0.1768673335452531E+02   0.5116938297373548E+00   0.5265209050691531E-01
   0.9258889053694321E-03   0.9352470827757347E-03   0.7516221927508659E+00   0.1768486311959028E+02   0.5025992543850771E+00   0.5135996203655151E-01
   0.9423919388928495E-03   0.9366962585241338E-03   0.7432584812855525E+00   0.1768312542179820E+02   0.4940580372555162E+00   0.5017544102022241E-01
   0.9589309880917399E-03   0.9381485955893917E-03   0.7352611631757273E+00   0.1768150412451581E+02   0.4860100834451184E+00   0.4908183653502796E-01
   0.9755043992421396E-03   0.9396039487462249E-03   0.7275948985942006E+00   0.1767998605958531E+02   0.4784041445921596E+00   0.4806601019265008E-01
   0.9921105643571225E-03   0.9410621767861489E-03   0.7202312473528421E+00   0.1767856000756456E+02   0.4711966744022666E+00   0.4711795483698589E-01
   0.1008747920112971E-02   0.9425231424231688E-03   0.7131464286794207E+00   0.1767721648387285E+02   0.4643506722632011E+00   0.4622971787632572E-01
   0.1025414946799038E-02   0.9439867122015455E-03   0.7063198257482781E+00   0.1767594743634061E+02   0.4578345115626968E+00   0.4539485043224026E-01
   0.1042110167290843E-02   0.9454527564056075E-03   0.6997332326783157E+00   0.1767474599458185E+02   0.4516208027046778E+00   0.4460792072043958E-01
   0.1058832146046077E-02   0.9469211489715697E-03   0.6933704380542068E+00   0.1767360621626058E+02   0.4456855671500277E+00   0.4386428954980808E-01
   0.1075579488123124E-02   0.9483917674013344E-03   0.6872169320554062E+00   0.1767252292159250E+02   0.4400076324141293E+00   0.4315995903895196E-01
   0.1092350838221797E-02   0.9498644926782401E-03   0.6812596632599124E+00   0.1767149155433155E+02   0.4345681892154589E+00   0.4249146727928739E-01
   0.1109144879746049E-02   0.9513392091847412E-03   0.6754868327559417E+00   0.1767050808497679E+02   0.4293504388559059E+00   0.4185579536215432E-01
   0.1125960333888352E-02   0.9528158046219915E-03   0.6698877226695534E+00   0.1766956892794840E+02   0.4243393063880095E+00   0.4125029159991371E-01
   0.1142795958735674E-02   0.9542941699313232E-03   0.6644525555584265E+00   0.1766867087828376E+02   0.4195212022334289E+00   0.4067261111999968E-01
   0.1159650548396840E-02   0.9557741992176057E-03   0.6591723788933690E+00   0.1766781105727043E+02   0.4148838245102868E+00   0.4012066870543338E-01
   0.1176522932151332E-02   0.9572557896744854E-03   0.6540389690500213E+00   0.1766698686883666E+02   0.4104159939888022E+00   0.3959260099852013E-01
   0.2790516645941595E-03   0.7042566982158764E-03   0.3451658832750058E+01   0.1782563192044854E+02   0.3354538639007464E+00   0.3403613534363943E+00
   0.2915864327250157E-03   0.7169171167053144E-03   0.3338605958425994E+01   0.1782396486064549E+02   0.3522268382546146E+00   0.3437070615154678E+00
   0.3042929942770397E-03   0.7292567670326394E-03   0.3224644912476866E+01   0.1782244034543588E+02   0.3700177141074149E+00   0.3468627512395291E+00
   0.3171665573505185E-03   0.7412636562462903E-03   0.3109885930879808E+01   0.1782107293580886E+02   0.3889153198685156E+00   0.3497668701462811E+00
   0.3302025014801987E-03   0.7529253044199590E-03   0.2994503921209992E+01   0.1781987849336953E+02   0.4089990413424089E+00   0.3523436883305562E+00
   0.3433963827825262E-03   0.7642291460799998E-03   0.2878742601192966E+01   0.1781887475894249E+02   0.4303356129021264E+00   0.3545049830397860E+00
   0.3567439403510976E-03   0.7751629548518907E-03   0.2762915544202031E+01   0.1781808198094876E+02   0.4529757733836551E+00   0.3561524529239963E+00
   0.3702411037833643E-03   0.7857152741205424E-03   0.2647403668995163E+01   0.1781752334394568E+02   0.4769506066499298E+00   0.3571808007276642E+00
   0.3838840015079680E-03   0.7958758357979485E-03   0.2532649121455848E+01   0.1781722525197792E+02   0.5022678206702968E+00   0.3574814859554079E+00
   0.3976689692539987E-03   0.8056359486857730E-03   0.2419145425153197E+01   0.1781721724183870E+02   0.5289077551617519E+00   0.3569470731954942E+00
   0.4115925575204628E-03   0.8149888374384482E-03   0.2307424027273508E+01   0.1781753135064468E+02   0.5568192406625627E+00   0.3554759957035705E+00
   0.4256515362272324E-03   0.8239299129076186E-03   0.2198037731779087E+01   0.1781820076963407E+02   0.5859152746014163E+00   0.3529774909036996E+00
   0.4398428938372021E-03   0.8324569549835117E-03   0.2091541776714748E+01   0.1781925751059416E+02   0.6160684986017555E+00   0.3493764045269817E+00
   0.4541638271609370E-03   0.8405701904801098E-03   0.1988473634110958E+01   0.1782072899750078E+02   0.6471065443480029E+00   0.3446175797195415E+00
   0.4686117169147901E-03   0.8482722519532539E-03   0.1889332772416483E+01   0.1782263331156961E+02   0.6788073361212396E+00   0.3386692667734248E+00
   0.4831840831850434E-03   0.8555680096419464E-03   0.1794561528725435E+01   0.1782497331479407E+02   0.7108945877777434E+00   0.3315260121588068E+00
   0.4978785147525672E-03   0.8624642790473936E-03   0.1704529474973674E+01   0.1782772972976818E+02   0.7430343537013014E+00   0.3232096137985079E+00
   0.5126925674718250E-03   0.8689694216093161E-03   0.1619520962964977E+01   0.1783085442691524E+02   0.7748336282173637E+00   0.3137699179879818E+00
   0.5276236303835357E-03   0.8750928748693016E-03   0.1539727834581516E+01   0.1783426352282475E+02   0.8058416681879272E+00   0.3032840151458918E+00
   0.5426687645422410E-03   0.8808446687032932E-03   0.1465247711206846E+01   0.1783783436864024E+02   0.8355575734026589E+00   0.2918550860080236E+00
   0.5578245284537670E-03   0.8862350004148343E-03   0.1396087168683653E+01   0.1784140402040018E+02   0.8634431096490633E+00   0.2796104245863254E+00