 VARIABLES =X,Y,D,E,U,V
 ZONE I=          59 , J=         425  F=POINT
   0.8467115485071681E-02   0.1577412215878568E-02   0.2820793157088978E+00   0.1763000000000000E+02   0.0000000000000000E+00   0.0000000000000000E+00
   0.8566786908876895E-02   0.1586132335539011E-02   0.2812543399657755E+00   0.1763000000000000E+02   0.0000000000000000E+00   0.0000000000000000E+00
   0.8666453414577328E-02   0.1594852024921041E-02   0.2804498298189853E+00   0.1763000000000000E+02   0.0000000000000000E+00   0.0000000000000000E+00
   0.8766115455795895E-02   0.1603571323711519E-02   0.2796648841265762E+00   0.1763000000000000E+02   0.0000000000000000E+00   0.0000000000000000E+00
   0.8865773446086129E-02   0.1612290268091691E-02   0.2788986747772655E+00   0.1763000000000000E+02   0.0000000000000000E+00   0.0000000000000000E+00
   0.8965427762190153E-02   0.1621008891022222E-02   0.2781504416482936E+00   0.1763000000000000E+02   0.0000000000000000E+00   0.0000000000000000E+00
   0.9065078747080298E-02   0.1629727222509302E-02   0.2774194871954412E+00   0.1763000000000000E+02   0.0000000000000000E+00   0.0000000000000000E+00
   0.9164726712789300E-02   0.1638445289852260E-02   0.2767051709129824E+00   0.1763000000000000E+02   0.0000000000000000E+00   0.0000000000000000E+00
   0.9264371943036280E-02   0.1647163117873301E-02   0.2760069038488220E+00   0.1763000000000000E+02   0.0000000000000000E+00   0.0000000000000000E+00
   0.9364014695657131E-02   0.1655880729130143E-02   0.2753241433184639E+00   0.1763000000000000E+02   0.0000000000000000E+00   0.0000000000000000E+00
   0.9463655204848974E-02   0.1664598144112380E-02   0.2746563879158281E+00   0.1763000000000000E+02   0.0000000000000000E+00   0.0000000000000000E+00
   0.9563293683238782E-02   0.1673315381422461E-02   0.2740031728843099E+00   0.1763000000000000E+02   0.0000000000000000E+00   0.0000000000000000E+00
   0.9662930323786715E-02   0.1682032457942212E-02   0.2733640658827758E+00   0.1763000000000000E+02   0.0000000000000000E+00   0.0000000000000000E+00
   0.9762565301534579E-02   0.1690749388985808E-02   0.2727386631567555E+00   0.1763000000000000E+02   0.0000000000000000E+00   0.0000000000000000E+00
   0.9862198775209873E-02   0.1699466188440105E-02   0.2721265861096379E+00   0.1763000000000000E+02   0.0000000000000000E+00   0.0000000000000000E+00
   0.9961830888695402E-02   0.1708182868893217E-02   0.2715274782567482E+00   0.1763000000000000E+02   0.0000000000000000E+00   0.0000000000000000E+00
   0.1006146177237425E-01   0.1716899441752186E-02   0.2709410025391359E+00   0.1763000000000000E+02   0.0000000000000000E+00   0.0000000000000000E+00
   0.1016109154435944E-01   0.1725615917350562E-02   0.2703668389710832E+00   0.1763000000000000E+02   0.0000000000000000E+00   0.0000000000000000E+00
   0.1026072031161705E-01   0.1734332305046666E-02   0.2698046825940522E+00   0.1763000000000000E+02   0.0000000000000000E+00   0.0000000000000000E+00
   0.1036034817099116E-01   0.1743048613313255E-02   0.2692542417116821E+00   0.1763000000000000E+02   0.0000000000000000E+00   0.0000000000000000E+00
   0.1045997521013856E-01   0.1751764849819307E-02   0.2687152363788528E+00   0.1763000000000000E+02   0.0000000000000000E+00   0.0000000000000000E+00
   0.1055960150838042E-01   0.1760481021504521E-02   0.2681873971216167E+00   0.1763000000000000E+02   0.0000000000000000E+00   0.0000000000000000E+00
   0.1065922713747782E-01   0.1769197134647183E-02   0.2676704638624475E+00   0.1763000000000000E+02   0.0000000000000000E+00   0.0000000000000000E+00
   0.1075885216233765E-01   0.1777913194925906E-02   0.2671641850254529E+00   0.1763000000000000E+02   0.0000000000000000E+00   0.0000000000000000E+00
   0.1085847664165455E-01   0.1786629207475807E-02   0.2666683167975864E+00   0.1763000000000000E+02   0.0000000000000000E+00   0.0000000000000000E+00
   0.1095810062849454E-01   0.1795345176939562E-02   0.2661826225182012E+00   0.1763000000000000E+02   0.0000000000000000E+00   0.0000000000000000E+00
   0.1105772417082530E-01   0.1804061107513799E-02   0.2657068721732500E+00   0.1763000000000000E+02   0.0000000000000000E+00   0.0000000000000000E+00
   0.1115734731199785E-01   0.1812777002991239E-02   0.2652408419684451E+00   0.1763000000000000E+02   0.0000000000000000E+00   0.0000000000000000E+00
   0.1125697009118369E-01   0.1821492866798946E-02   0.2647843139623877E+00   0.1763000000000000E+02   0.0000000000000000E+00   0.0000000000000000E+00
   0.1135659254377167E-01   0.1830208702033043E-02   0.2643370757392727E+00   0.1763000000000000E+02   0.0000000000000000E+00   0.0000000000000000E+00
   0.1145621470172786E-01   0.1838924511490199E-02   0.2638989201093335E+00   0.1763000000000000E+02   0.0000000000000000E+00   0.0000000000000000E+00
   0.1155583659392198E-01   0.1847640297696186E-02   0.2634696448265899E+00   0.1763000000000000E+02   0.0000000000000000E+00   0.0000000000000000E+00
   0.1165545824642322E-01   0.1856356062931764E-02   0.2630490523217163E+00   0.1763000000000000E+02   0.0000000000000000E+00   0.0000000000000000E+00
   0.1175507968276843E-01   0.1865071809256138E-02   0.2626369494467258E+00   0.1763000000000000E+02   0.0000000000000000E+00   0.0000000000000000E+00
   0.1185470092420499E-01   0.1873787538528216E-02   0.2622331472379903E+00   0.1763000000000000E+02   0.0000000000000000E+00   0.0000000000000000E+00
   0.1195432198991084E-01   0.1882503252425849E-02   0.2618374606979708E+00   0.1763000000000000E+02   0.0000000000000000E+00   0.0000000000000000E+00
   0.1205394289719368E-01   0.1891218952463265E-02   0.2614497086064783E+00   0.1763000000000000E+02   0.0000000000000000E+00   0.0000000000000000E+00
   0.1215356366167132E-01   0.1899934640006844E-02   0.2610697133615828E+00   0.1763000000000000E+02   0.0000000000000000E+00   0.0000000000000000E+00
   0.1225318429743486E-01   0.1908650316289399E-02   0.2606973008589294E+00   0.1763000000000000E+02   0.0000000000000000E+00   0.0000000000000000E+00
   0.1235280481719636E-01   0.1917365982423090E-02   0.2603323004073859E+00   0.1763000000000000E+02   0.0000000000000000E+00   0.0000000000000000E+00
   0.1245242523242244E-01   0.1926081639411118E-02   0.2599745446832940E+00   0.1763000000000000E+02   0.0000000000000000E+00   0.0000000000000000E+00
   0.1255204555345507E-01   0.1934797288158286E-02   0.2596238697175390E+00   0.1763000000000000E+02   0.0000000000000000E+00   0.0000000000000000E+00
   0.1265166578962084E-01   0.1943512929480566E-02   0.2592801149126465E+00   0.1763000000000000E+02   0.0000000000000000E+00   0.0000000000000000E+00
   0.1275128594932968E-01   0.1952228564113732E-02   0.2589431230797473E+00   0.1763000000000000E+02   0.0000000000000000E+00   0.0000000000000000E+00
   0.1285090604016419E-01   0.1960944192721173E-02   0.2586127404886244E+00   0.1763000000000000E+02   0.0000000000000000E+00   0.0000000000000000E+00
   0.1295052606896024E-01   0.1969659815900954E-02   0.2582888169202896E+00   0.1763000000000000E+02   0.0000000000000000E+00   0.0000000000000000E+00
   0.1305014604187995E-01   0.1978375434192188E-02   0.2579712057148937E+00   0.1763000000000000E+02   0.0000000000000000E+00   0.0000000000000000E+00
   0.1314976596447748E-01   0.1987091048080802E-02   0.2576597638064677E+00   0.1763000000000000E+02   0.0000000000000000E+00   0.0000000000000000E+00
   0.1324938584175857E-01   0.1995806658004741E-02   0.2573543517384107E+00   0.1763000000000000E+02   0.0000000000000000E+00   0.0000000000000000E+00
   0.1334900567823422E-01   0.2004522264358666E-02   0.2570548336570740E+00   0.1763000000000000E+02   0.0000000000000000E+00   0.0000000000000000E+00
   0.1344862547796922E-01   0.2013237867498201E-02   0.2567610772804959E+00   0.1763000000000000E+02   0.0000000000000000E+00   0.0000000000000000E+00
   0.1354824524462599E-01   0.2021953467743766E-02   0.2564729538432906E+00   0.1763000000000000E+02   0.0000000000000000E+00   0.0000000000000000E+00
   0.1364786498150403E-01   0.2030669065384031E-02   0.2561903380197996E+00   0.1763000000000000E+02   0.0000000000000000E+00   0.0000000000000000E+00
   0.1374748469157573E-01   0.2039384660679044E-02   0.2559131078292549E+00   0.1763000000000000E+02   0.0000000000000000E+00   0.0000000000000000E+00
   0.1384710437751849E-01   0.2048100253863048E-02   0.2556411445273489E+00   0.1763000000000000E+02   0.0000000000000000E+00   0.0000000000000000E+00
   0.1394672404174383E-01   0.2056815845147024E-02   0.2553743324876504E+00   0.1763000000000000E+02   0.0000000000000000E+00   0.0000000000000000E+00
   0.1404634368642360E-01   0.2065531434720983E-02   0.2551125590801658E+00   0.1763000000000000E+02   0.0000000000000000E+00   0.0000000000000000E+00
   0.1414596331351365E-01   0.2074247022756044E-02   0.2548557145496385E+00   0.1763000000000000E+02   0.0000000000000000E+00   0.0000000000000000E+00
   0.1424558292477517E-01   0.2082962609406286E-02   0.2546036918970208E+00   0.1763000000000000E+02   0.0000000000000000E+00   0.0000000000000000E+00
   0.8466250467811449E-02   0.1587299408405825E-02   0.2821807283541439E+00   0.1762829830257279E+02   0.7362144384890228E-01   0.6454218977207048E-02
   0.8565920625799105E-02   0.1596033996427161E-02   0.2813541008751554E+00   0.1762829262935634E+02   0.7328274974501571E-01   0.6424077406790758E-02
   0.8665585867287143E-02   0.1604768135822976E-02   0.2805480063961374E+00   0.1762828731357517E+02   0.7295194386987335E-01   0.6394650402918330E-02
   0.8765246645887081E-02   0.1613501866410438E-02   0.2797615405201804E+00   0.1762828232638775E+02   0.7262870358035629E-01   0.6365908612902834E-02
   0.8864903375141613E-02   0.1622235224494607E-02   0.2789938717826982E+00   0.1762827764139311E+02   0.7231271418960245E-01   0.6337823293179224E-02
   0.8964556431782563E-02   0.1630968243153980E-02   0.2782442366819242E+00   0.1762827323466683E+02   0.7200367142507902E-01   0.6310366562207106E-02
   0.9064206158772424E-02   0.1639700952507076E-02   0.2775119343311562E+00   0.1762826908472594E+02   0.7170128327409871E-01   0.6283511594638108E-02
   0.9163852868134554E-02   0.1648433379960491E-02   0.2767963209676680E+00   0.1762826517243670E+02   0.7140527126699574E-01   0.6257232760914219E-02
   0.9263496843579095E-02   0.1657165550439047E-02   0.2760968045068634E+00   0.1762826148087888E+02   0.7111537126440354E-01   0.6231505717685851E-02
   0.9363138342933335E-02   0.1665897486598803E-02   0.2754128392832335E+00   0.1762825799517983E+02   0.7083133382304642E-01   0.6206307456335079E-02
   0.9462777600386135E-02   0.1674629209023771E-02   0.2747439210791088E+00   0.1762825470233035E+02   0.7055292421703765E-01   0.6181616316261662E-02
   0.9562414828556524E-02   0.1683360736407213E-02   0.2740895825061666E+00   0.1762825159099233E+02   0.7027992218761744E-01   0.6157411970617015E-02
   0.9662050220397003E-02   0.1692092085718460E-02   0.2734493887749094E+00   0.1762824865130691E+02   0.7001212148814345E-01   0.6133675390579735E-02
   0.9761683950941992E-02   0.1700823272356156E-02   0.2728229338648797E+00   0.1762824587470933E+02   0.6974932928215451E-01   0.6110388794054808E-02
   0.9861316178911842E-02   0.1709554310288834E-02   0.2722098370907020E+00   0.1762824325375541E+02   0.6949136544194698E-01   0.6087535583757743E-02
   0.9960947048182437E-02   0.1718285212183725E-02   0.2716097400489379E+00   0.1762824078196221E+02   0.6923806178586837E-01   0.6065100278506002E-02
   0.1006057668913014E-01   0.1727015989524633E-02   0.2710223039229371E+00   0.1762823845366417E+02   0.6898926128313378E-01   0.6043068440642692E-02
   0.1016020521986146E-01   0.1735746652719703E-02   0.2704472071205099E+00   0.1762823626388499E+02   0.6874481724792079E-01   0.6021426602006955E-02
   0.1025983274733611E-01   0.1744477211199861E-02   0.2698841432175138E+00   0.1762823420822419E+02   0.6850459253862773E-01   0.6000162189891427E-02
   0.1035945936839198E-01   0.1753207673508639E-02   0.2693328191819310E+00   0.1762823228275722E+02   0.6826845877458722E-01   0.5979263454366967E-02
   0.1045908517067983E-01   0.1761938047384093E-02   0.2687929538527360E+00   0.1762823048394737E+02   0.6803629557994485E-01   0.5958719397765669E-02
   0.1055871023351491E-01   0.1770668339833451E-02   0.2682642766488039E+00   0.1762822880856870E+02   0.6780798986367113E-01   0.5938519707212520E-02
   0.1065833462865252E-01   0.1779398557201081E-02   0.2677465264836048E+00   0.1762822725363827E+02   0.6758343514310565E-01   0.5918654690866549E-02
   0.1075795842099388E-01   0.1788128705230357E-02   0.2672394508605275E+00   0.1762822581635753E+02   0.6736253091851764E-01   0.5899115218509382E-02
   0.1085758166922808E-01   0.1796858789119919E-02   0.2667428051233399E+00   0.1762822449406237E+02   0.6714518210438442E-01   0.5879892667280769E-02
   0.1095720442641567E-01   0.1805588813574830E-02   0.2662563518368234E+00   0.1762822328418168E+02   0.6693129852146920E-01   0.5860978872653008E-02
   0.1105682674051899E-01   0.1814318782853047E-02   0.2657798602715755E+00   0.1762822218420427E+02   0.6672079445111755E-01   0.5842366085310347E-02
   0.1115644865488375E-01   0.1823048700807635E-02   0.2653131059702600E+00   0.1762822119165426E+02   0.6651358825069614E-01   0.5824046933734641E-02
   0.1125607020867627E-01   0.1831778570925086E-02   0.2648558703730602E+00   0.1762822030407403E+02   0.6630960202568029E-01   0.5806014392191547E-02
   0.1135569143728027E-01   0.1840508396360096E-02   0.2644079404853034E+00   0.1762821951901440E+02   0.6610876135145734E-01   0.5788261753739967E-02
   0.1145531237265677E-01   0.1849238179967112E-02   0.2639691085732895E+00   0.1762821883403073E+02   0.6591099503564077E-01   0.5770782607590814E-02
   0.1155493304367049E-01   0.1857967924328932E-02   0.2635391718793256E+00   0.1762821824668389E+02   0.6571623491121964E-01   0.5753570819286815E-02
   0.1165455347638570E-01   0.1866697631782643E-02   0.2631179323514972E+00   0.1762821775454426E+02   0.6552441564946861E-01   0.5736620513809566E-02
   0.1175417369433437E-01   0.1875427304443121E-02   0.2627051963879992E+00   0.1762821735519784E+02   0.6533547458394036E-01   0.5719926059584079E-02
   0.1185379371875908E-01   0.1884156944224319E-02   0.2623007745975192E+00   0.1762821704625246E+02   0.6514935153746323E-01   0.5703482053221466E-02
   0.1195341356883299E-01   0.1892886552858550E-02   0.2619044815821914E+00   0.1762821682534354E+02   0.6496598864705666E-01   0.5687283304320319E-02
   0.1205303326185910E-01   0.1901616131913948E-02   0.2615161357460419E+00   0.1762821669013812E+02   0.6478533018408730E-01   0.5671324819552514E-02
   0.1215265281345053E-01   0.1910345682810276E-02   0.2611355591367603E+00   0.1762821663833703E+02   0.6460732236953400E-01   0.5655601786599368E-02
   0.1225227223769377E-01   0.1919075206833228E-02   0.2607625773221838E+00   0.1762821666767460E+02   0.6443191318706086E-01   0.5640109557283046E-02
   0.1235189154729629E-01   0.1927804705147371E-02   0.2603970193051729E+00   0.1762821677591659E+02   0.6425905219811130E-01   0.5624843630751229E-02
   0.1245151075372016E-01   0.1936534178807857E-02   0.2600387174749063E+00   0.1762821696085640E+02   0.6408869036391880E-01   0.5609799637188707E-02
   0.1255112986730286E-01   0.1945263628771010E-02   0.2596875075924163E+00   0.1762821722031028E+02   0.6392077988127233E-01   0.5594973322025532E-02
   0.1265074889736648E-01   0.1953993055903903E-02   0.2593432288040632E+00   0.1762821755211255E+02   0.6375527403632865E-01   0.5580360531986980E-02
   0.1275036785231653E-01   0.1962722460993015E-02   0.2590057236761349E+00   0.1762821795411102E+02   0.6359212708211519E-01   0.5565957202732192E-02
   0.1284998673973121E-01   0.1971451844752054E-02   0.2586748382418915E+00   0.1762821842416373E+02   0.6343129414181591E-01   0.5551759349061100E-02
   0.1294960556644202E-01   0.1980181207829032E-02   0.2583504220519464E+00   0.1762821896013739E+02   0.6327273113966582E-01   0.5537763057293862E-02
   0.1304922433860673E-01   0.1988910550812653E-02   0.2580323282199121E+00   0.1762821955990747E+02   0.6311639475834566E-01   0.5523964480507390E-02
   0.1314884306177521E-01   0.1997639874238090E-02   0.2577204134552348E+00   0.1762822022136050E+02   0.6296224242080396E-01   0.5510359835779240E-02
   0.1324846174094891E-01   0.2006369178592194E-02   0.2574145380781249E+00   0.1762822094239794E+02   0.6281023229233096E-01   0.5496945403825389E-02
   0.1334808038063458E-01   0.2015098464318210E-02   0.2571145660119838E+00   0.1762822172094159E+02   0.6266032329812186E-01   0.5483717530095670E-02
   0.1344769898489279E-01   0.2023827731820025E-02   0.2568203647524311E+00   0.1762822255493988E+02   0.6251247515101607E-01   0.5470672627105422E-02
   0.1354731755738175E-01   0.2032556981466017E-02   0.2565318053124034E+00   0.1762822344237469E+02   0.6236664838378472E-01   0.5457807177560174E-02
   0.1364693610139681E-01   0.2041286213592510E-02   0.2562487621462354E+00   0.1762822438126794E+02   0.6222280438134183E-01   0.5445117737425115E-02
   0.1374655461990622E-01   0.2050015428506913E-02   0.2559711130554260E+00   0.1762822536968737E+02   0.6208090540859354E-01   0.5432600938957388E-02
   0.1384617311558324E-01   0.2058744626490541E-02   0.2556987390808700E+00   0.1762822640575201E+02   0.6194091463087151E-01   0.5420253493209517E-02
   0.1394579159083531E-01   0.2067473807801166E-02   0.2554315243861685E+00   0.1762822748763551E+02   0.6180279612518878E-01   0.5408072191421198E-02
   0.1404541004783021E-01   0.2076202972675315E-02   0.2551693561364680E+00   0.1762822861356906E+02   0.6166651488133175E-01   0.5396053905933916E-02
   0.1414502848851974E-01   0.2084932121330344E-02   0.2549121243773373E+00   0.1762822978184221E+02   0.6153203679304857E-01   0.5384195589765375E-02
   0.1424464691466107E-01   0.2093661253966316E-02   0.2546597219172459E+00   0.1762823099080297E+02   0.6139932864035080E-01   0.5372494275561053E-02
   0.8465385421105399E-02   0.1597186937500296E-02   0.2823247582490178E+00   0.1762930659402111E+02   0.1467120451516747E+00   0.1288822596776878E-01
   0.8565054313232408E-02   0.1605935994375036E-02   0.2814959763861506E+00   0.1762927066666666E+02   0.1460405012288095E+00   0.1282744593418228E-01
   0.8664718290465018E-02   0.1614684584276526E-02   0.2806878100715344E+00   0.1762923613042702E+02   0.1453845614136904E+00   0.1276812799124068E-01
   0.8764377806403345E-02   0.1623432747152242E-02   0.2798993509362407E+00   0.1762920289737668E+02   0.1447435907546835E+00   0.1271021214270724E-01
   0.8864033274579252E-02   0.1632180519431060E-02   0.2791297634895957E+00   0.1762917088556958E+02   0.1441169697240067E+00   0.1265363939685684E-01
   0.8963685071714252E-02   0.1640927934309316E-02   0.2783782802205136E+00   0.1762914001924900E+02   0.1435040990511094E+00   0.1259835233860468E-01
   0.9063333540761010E-02   0.1649675022017861E-02   0.2776441963090006E+00   0.1762911022887132E+02   0.1429044033630856E+00   0.1254429557749239E-01
   0.9162978993733502E-02   0.1658421810070562E-02   0.2769268641823356E+00   0.1762908145097590E+02   0.1423173337275496E+00   0.1249141607765389E-01
   0.9262621714332890E-02   0.1667168323494861E-02   0.2762256881048720E+00   0.1762905362793418E+02   0.1417423692254517E+00   0.1243966338113522E-01
   0.9362261960377856E-02   0.1675914585045161E-02   0.2755401189441922E+00   0.1762902670761027E+02   0.1411790176981902E+00   0.1238898973829418E-01
   0.9461899966049002E-02   0.1684660615399895E-02   0.2748696492155792E+00   0.1762900064296263E+02   0.1406268158177732E+00   0.1233935015978745E-01
   0.9561535943957413E-02   0.1693406433343142E-02   0.2742138084715712E+00   0.1762897539161264E+02   0.1400853286224097E+00   0.1229070240596691E-01
   0.9661170087047933E-02   0.1702152055931742E-02   0.2735721590731200E+00   0.1762895091540203E+02   0.1395541486475869E+00   0.1224300692727459E-01
   0.9760802570347589E-02   0.1710897498648808E-02   0.2729442923565781E+00   0.1762892717995567E+02   0.1390328947654253E+00   0.1219622676858199E-01
   0.9860433552569591E-02   0.1719642775544556E-02   0.2723298251932603E+00   0.1762890415426281E+02   0.1385212108257543E+00   0.1215032744810762E-01
   0.9960063177582896E-02   0.1728387899365334E-02   0.2717283969270936E+00   0.1762888181028464E+02   0.1380187641734021E+00   0.1210527682003207E-01
   0.1005969157575716E-01   0.1737132881671711E-02   0.2711396666690619E+00   0.1762886012259256E+02   0.1375252440989111E+00   0.1206104492735084E-01
   0.1015931886519235E-01   0.1745877732946432E-02   0.2705633109232112E+00   0.1762883906803909E+02   0.1370403602654361E+00   0.1201760385021053E-01
   0.1025894515284183E-01   0.1754622462693029E-02   0.2699990215188249E+00   0.1762881862546020E+02   0.1365638411435867E+00   0.1197492755342330E-01
   0.1035857053553732E-01   0.1763367079525808E-02   0.2694465038223072E+00   0.1762879877540766E+02   0.1360954324785182E+00   0.1193299173587986E-01
   0.1045819510092352E-01   0.1772111591251912E-02   0.2689054752042676E+00   0.1762877949990847E+02   0.1356348958090047E+00   0.1189177368376644E-01
   0.1055781892830975E-01   0.1780856004946094E-02   0.2683756637367451E+00   0.1762876078224996E+02   0.1351820070557345E+00   0.1185125212939197E-01
   0.1065744208944557E-01   0.1789600327018811E-02   0.2678568070962969E+00   0.1762874260678791E+02   0.1347365551943691E+00   0.1181140711690397E-01
   0.1075706464922650E-01   0.1798344563278196E-02   0.2673486516481158E+00   0.1762872495877767E+02   0.1342983410274040E+00   0.1177221987660752E-01
   0.1085668666633609E-01   0.1807088718986418E-02   0.2668509516859012E+00   0.1762870782422705E+02   0.1338671760665924E+00   0.1173367270896816E-01
   0.1095630819382944E-01   0.1815832798910928E-02   0.2663634688019800E+00   0.1762869118977147E+02   0.1334428815337956E+00   0.1169574887956325E-01
   0.1105592927966350E-01   0.1824576807371013E-02   0.2658859713632292E+00   0.1762867504257076E+02   0.1330252874833359E+00   0.1165843252577865E-01
   0.1115554996717871E-01   0.1833320748280084E-02   0.2654182340685480E+00   0.1762865937022729E+02   0.1326142320436395E+00   0.1162170857550273E-01
   0.1125517029553619E-01   0.1842064625184063E-02   0.2649600375674563E+00   0.1762864416072390E+02   0.1322095607695185E+00   0.1158556267763943E-01
   0.1135479030011455E-01   0.1850808441296223E-02   0.2645111681214122E+00   0.1762862940237990E+02   0.1318111260918777E+00   0.1154998114331375E-01
   0.1145441001286974E-01   0.1859552199528788E-02   0.2640714172951183E+00   0.1762861508382192E+02   0.1314187868468692E+00   0.1151495089694329E-01
   0.1155402946266149E-01   0.1868295902521587E-02   0.2636405816677145E+00   0.1762860119396719E+02   0.1310324078652943E+00   0.1148045943444636E-01
   0.1165364867554915E-01   0.1877039552668036E-02   0.2632184625599915E+00   0.1762858772201438E+02   0.1306518596015899E+00   0.1144649478751619E-01
   0.1175326767505981E-01   0.1885783152138680E-02   0.2628048657765500E+00   0.1762857465743974E+02   0.1302770177844676E+00   0.1141304549142596E-01
   0.1185288648243123E-01   0.1894526702902521E-02   0.2623996013651630E+00   0.1762856198999416E+02   0.1299077630743382E+00   0.1138010055415214E-01
   0.1195250511683183E-01   0.1903270206746337E-02   0.2620024833980559E+00   0.1762854970969962E+02   0.1295439807168123E+00   0.1134764942645754E-01
   0.1205212359555987E-01   0.1912013665292169E-02   0.2616133297795766E+00   0.1762853780684196E+02   0.1291855601875364E+00   0.1131568197036816E-01
   0.1215174193422382E-01   0.1920757080013164E-02   0.2612319620863807E+00   0.1762852627196020E+02   0.1288323948279159E+00   0.1128418842716475E-01
   0.1225136014690551E-01   0.1929500452247900E-02   0.2608582054424191E+00   0.1762851509583120E+02   0.1284843814767739E+00   0.1125315938344674E-01
   0.1235097824630785E-01   0.1938243783213353E-02   0.2604918884317202E+00   0.1762850426945087E+02   0.1281414201060327E+00   0.1122258573690642E-01
   0.1245059624388837E-01   0.1946987074016627E-02   0.2601328430474008E+00   0.1762849378401306E+02   0.1278034134705801E+00   0.1119245866214761E-01
   0.1255021414998002E-01   0.1955730325665569E-02   0.2597809046744126E+00   0.1762848363088721E+02   0.1274702667843751E+00   0.1116276957768117E-01
   0.1264983197390044E-01   0.1964473539078355E-02   0.2594359121002767E+00   0.1762847380159752E+02   0.1271418874326873E+00   0.1113351011538938E-01
   0.1274944972405070E-01   0.1973216715092168E-02   0.2590977075467175E+00   0.1762846428780419E+02   0.1268181847299343E+00   0.1110467209349630E-01
   0.1284906740800458E-01   0.1981959854471040E-02   0.2587661367138251E+00   0.1762845508128902E+02   0.1264990697284395E+00   0.1107624749406358E-01
   0.1294868503258922E-01   0.1990702957912931E-02   0.2584410488280712E+00   0.1762844617394601E+02   0.1261844550808980E+00   0.1104822844525033E-01
   0.1304830260395807E-01   0.1999446026056138E-02   0.2581222966855766E+00   0.1762843755777742E+02   0.1258742549548484E+00   0.1102060720927966E-01
   0.1314792012765667E-01   0.2008189059485080E-02   0.2578097366835245E+00   0.1762842922489533E+02   0.1255683849949453E+00   0.1099337617498734E-01
   0.1324753760868219E-01   0.2016932058735517E-02   0.2575032288335896E+00   0.1762842116752799E+02   0.1252667623248942E+00   0.1096652785546443E-01
   0.1334715505153713E-01   0.2025675024299279E-02   0.2572026367541702E+00   0.1762841337803005E+02   0.1249693055800423E+00   0.1094005488938801E-01
   0.1344677246027785E-01   0.2034417956628520E-02   0.2569078276388254E+00   0.1762840584889525E+02   0.1246759349598424E+00   0.1091395004521867E-01
   0.1354638983855836E-01   0.2043160856139575E-02   0.2566186722020191E+00   0.1762839857277045E+02   0.1243865722897448E+00   0.1088820622741149E-01
   0.1364600718966984E-01   0.2051903723216424E-02   0.2563350446035499E+00   0.1762839154246928E+02   0.1241011410828938E+00   0.1086281648333559E-01
   0.1374562451657639E-01   0.2060646558213839E-02   0.2560568223551167E+00   0.1762838475098405E+02   0.1238195665937166E+00   0.1083777400996562E-01
   0.1384524182194716E-01   0.2069389361460209E-02   0.2557838862136732E+00   0.1762837819149618E+02   0.1235417758573052E+00   0.1081307215988458E-01
   0.1394485910818548E-01   0.2078132133260097E-02   0.2555161200652195E+00   0.1762837185738265E+02   0.1232676977108230E+00   0.1078870444548328E-01
   0.1404447637745508E-01   0.2086874873896547E-02   0.2552534108047799E+00   0.1762836574222008E+02   0.1229972627953624E+00   0.1076466454151806E-01
   0.1414409363170371E-01   0.2095617583633160E-02   0.2549956482155880E+00   0.1762835983978505E+02   0.1227304035385288E+00   0.1074094628551352E-01
   0.1424371087268451E-01   0.2104360262715976E-02   0.2547427248521769E+00   0.1762835414405174E+02   0.1224670541194974E+00   0.1071754367642012E-01
   0.8464520343965018E-02   0.1607074814460788E-02   0.2825106642260937E+00   0.1763296740622401E+02   0.2192849633023227E+00   0.1930301337246818E-01
   0.8564187970186843E-02   0.1615838340697981E-02   0.2816792384908249E+00   0.1763287752269290E+02   0.2182862403431207E+00   0.1921109884656478E-01
   0.8663850683119544E-02   0.1624601381613547E-02   0.2808685255212117E+00   0.1763279071072579E+02   0.2173106702217912E+00   0.1912142612892482E-01
   0.8763508936351838E-02   0.1633363977285278E-02   0.2800776122890540E+00   0.1763270679481213E+02   0.2163573156885912E+00   0.1903390333943994E-01
   0.8863163143404750E-02   0.1642126164265870E-02   0.2793056586325033E+00   0.1763262560996134E+02   0.2154252619235445E+00   0.1894843979159426E-01
   0.8962813680989489E-02   0.1650887975869501E-02   0.2785518924263365E+00   0.1763254700221757E+02   0.2145136236622229E+00   0.1886494694707603E-01
   0.9062460892048889E-02   0.1659649442439359E-02   0.2778156043500374E+00   0.1763247082883310E+02   0.2136215505794387E+00   0.1878333917414132E-01
   0.9162105088587539E-02   0.1668410591596585E-02   0.2770961424891679E+00   0.1763239695815467E+02   0.2127482310665739E+00   0.1870353431706592E-01
   0.9261746554297623E-02   0.1677171448471244E-02   0.2763929069583236E+00   0.1763232526928048E+02   0.2118928945864439E+00   0.1862545409288964E-01
   0.9361385546989221E-02   0.1685932035916088E-02   0.2757053446902271E+00   0.1763225565154396E+02   0.2110548128149342E+00   0.1854902433594085E-01
   0.9461022300834674E-02   0.1694692374703974E-02   0.2750329444939312E+00   0.1763218800387710E+02   0.2102332997854691E+00   0.1847417511319815E-01
   0.9560657028437119E-02   0.1703452483709801E-02   0.2743752324503385E+00   0.1763212223409933E+02   0.2094277112444217E+00   0.1840084073493601E-01
   0.9660289922733746E-02   0.1712212380077921E-02   0.2737317676832236E+00   0.1763205825817231E+02   0.2086374434073194E+00   0.1832895968292579E-01
   0.9759921158744191E-02   0.1720972079375919E-02   0.2731021385211602E+00   0.1763199599945048E+02   0.2078619312811165E+00   0.1825847447721742E-01
   0.9859550895174514E-02   0.1729731595735696E-02   0.2724859590488830E+00   0.1763193538795229E+02   0.2071006466899533E+00   0.1818933149901996E-01
   0.9959179275886756E-02   0.1738490941982722E-02   0.2718828660342300E+00   0.1763187635966726E+02   0.2063530961139148E+00   0.1812148078490158E-01
   0.1005880643124385E-01   0.1747250129754331E-02   0.2712925162105716E+00   0.1763181885590855E+02   0.2056188184255143E+00   0.1805487580317901E-01
   0.1015843247933924E-01   0.1756009169607871E-02   0.2707145838900337E+00   0.1763176282271568E+02   0.2048973825871142E+00   0.1798947322151682E-01
   0.1025805752711995E-01   0.1764768071119485E-02   0.2701487588824329E+00   0.1763170821030721E+02   0.2041883853567273E+00   0.1792523267182300E-01
   0.1035768167141148E-01   0.1773526842974254E-02   0.2695947446942230E+00   0.1763165497258236E+02   0.2034914490385253E+00   0.1786211651677837E-01
   0.1045730499985250E-01   0.1782285493048410E-02   0.2690522569824137E+00   0.1763160306666790E+02   0.2028062193074244E+00   0.1780008962138433E-01