 VARIABLES =X,Y,D,E,U,V
 ZONE I=          59 , J=         425  F=POINT
   0.8656932023001947E-01   0.8410469727442051E-02   0.2379754393042743E+00   0.1763000000000000E+02   0.0000000000000000E+00   0.0000000000000000E+00
   0.8666893973256598E-01   0.8419185304580964E-02   0.2379707781537416E+00   0.1763000000000000E+02   0.0000000000000000E+00   0.0000000000000000E+00
   0.8676855923622268E-01   0.8427900881817003E-02   0.2379661168436604E+00   0.1763000000000000E+02   0.0000000000000000E+00   0.0000000000000000E+00
   0.8686817874102599E-01   0.8436616459153360E-02   0.2379614553782725E+00   0.1763000000000000E+02   0.0000000000000000E+00   0.0000000000000000E+00
   0.8696779824701589E-01   0.8445332036593528E-02   0.2379567937541593E+00   0.1763000000000000E+02   0.0000000000000000E+00   0.0000000000000000E+00
   0.8706741775423164E-01   0.8454047614140947E-02   0.2379521319606646E+00   0.1763000000000000E+02   0.0000000000000000E+00   0.0000000000000000E+00
   0.8716703726271531E-01   0.8462763191799292E-02   0.2379474699802395E+00   0.1763000000000000E+02   0.0000000000000000E+00   0.0000000000000000E+00
   0.8726665677250965E-01   0.8471478769572306E-02   0.2379428077881011E+00   0.1763000000000000E+02   0.0000000000000000E+00   0.0000000000000000E+00
   0.8736627628366025E-01   0.8480194347463978E-02   0.2379381453546272E+00   0.1763000000000000E+02   0.0000000000000000E+00   0.0000000000000000E+00
   0.8746589579621127E-01   0.8488909925478169E-02   0.2379334826441248E+00   0.1763000000000000E+02   0.0000000000000000E+00   0.0000000000000000E+00
   0.8756551531021177E-01   0.8497625503619176E-02   0.2379288196166893E+00   0.1763000000000000E+02   0.0000000000000000E+00   0.0000000000000000E+00
   0.8766513482570980E-01   0.8506341081891198E-02   0.2379241562276412E+00   0.1763000000000000E+02   0.0000000000000000E+00   0.0000000000000000E+00
   0.8776475434275652E-01   0.8515056660298713E-02   0.2379194924309389E+00   0.1763000000000000E+02   0.0000000000000000E+00   0.0000000000000000E+00
   0.8786437386140382E-01   0.8523772238846261E-02   0.2379148281765721E+00   0.1763000000000000E+02   0.0000000000000000E+00   0.0000000000000000E+00
   0.8796399338170709E-01   0.8532487817538688E-02   0.2379101634140281E+00   0.1763000000000000E+02   0.0000000000000000E+00   0.0000000000000000E+00
   0.8806361290372136E-01   0.8541203396380807E-02   0.2379054980914971E+00   0.1763000000000000E+02   0.0000000000000000E+00   0.0000000000000000E+00
   0.8816323242750587E-01   0.8549918975377803E-02   0.2379008321587374E+00   0.1763000000000000E+02   0.0000000000000000E+00   0.0000000000000000E+00
   0.8826285195311950E-01   0.8558634554534827E-02   0.2378961655643578E+00   0.1763000000000000E+02   0.0000000000000000E+00   0.0000000000000000E+00
   0.8836247148062468E-01   0.8567350133857338E-02   0.2378914982598412E+00   0.1763000000000000E+02   0.0000000000000000E+00   0.0000000000000000E+00
   0.8846209101008483E-01   0.8576065713350888E-02   0.2378868301983545E+00   0.1763000000000000E+02   0.0000000000000000E+00   0.0000000000000000E+00
   0.8856171054156758E-01   0.8584781293021395E-02   0.2378821613362020E+00   0.1763000000000000E+02   0.0000000000000000E+00   0.0000000000000000E+00
   0.8866133007514067E-01   0.8593496872874778E-02   0.2378774916331605E+00   0.1763000000000000E+02   0.0000000000000000E+00   0.0000000000000000E+00
   0.8876094961087483E-01   0.8602212452917233E-02   0.2378728210529312E+00   0.1763000000000000E+02   0.0000000000000000E+00   0.0000000000000000E+00
   0.8886056914884369E-01   0.8610928033155198E-02   0.2378681495633909E+00   0.1763000000000000E+02   0.0000000000000000E+00   0.0000000000000000E+00
   0.8896018868912334E-01   0.8619643613595332E-02   0.2378634771376426E+00   0.1763000000000000E+02   0.0000000000000000E+00   0.0000000000000000E+00
   0.8905980823179088E-01   0.8628359194244381E-02   0.2378588037522826E+00   0.1763000000000000E+02   0.0000000000000000E+00   0.0000000000000000E+00
   0.8915942777692835E-01   0.8637074775109518E-02   0.2378541293899685E+00   0.1763000000000000E+02   0.0000000000000000E+00   0.0000000000000000E+00
   0.8925904732461849E-01   0.8645790356197985E-02   0.2378494540382987E+00   0.1763000000000000E+02   0.0000000000000000E+00   0.0000000000000000E+00
   0.8935866687494889E-01   0.8654505937517445E-02   0.2378447776904306E+00   0.1763000000000000E+02   0.0000000000000000E+00   0.0000000000000000E+00
   0.8945828642800828E-01   0.8663221519075661E-02   0.2378401003433767E+00   0.1763000000000000E+02   0.0000000000000000E+00   0.0000000000000000E+00
   0.8955790598388989E-01   0.8671937100880787E-02   0.2378354219995337E+00   0.1763000000000000E+02   0.0000000000000000E+00   0.0000000000000000E+00
   0.8965752554268837E-01   0.8680652682941109E-02   0.2378307426663743E+00   0.1763000000000000E+02   0.0000000000000000E+00   0.0000000000000000E+00
   0.8975714510450362E-01   0.8689368265265363E-02   0.2378260623552070E+00   0.1763000000000000E+02   0.0000000000000000E+00   0.0000000000000000E+00
   0.8985676466943729E-01   0.8698083847862444E-02   0.2378213810818179E+00   0.1763000000000000E+02   0.0000000000000000E+00   0.0000000000000000E+00
   0.8995638423759526E-01   0.8706799430741614E-02   0.2378166988644447E+00   0.1763000000000000E+02   0.0000000000000000E+00   0.0000000000000000E+00
   0.9005600380908689E-01   0.8715515013912442E-02   0.2378120157253005E+00   0.1763000000000000E+02   0.0000000000000000E+00   0.0000000000000000E+00
   0.9015562338402471E-01   0.8724230597384773E-02   0.2378073316890969E+00   0.1763000000000000E+02   0.0000000000000000E+00   0.0000000000000000E+00
   0.9025524296252614E-01   0.8732946181168879E-02   0.2378026467832761E+00   0.1763000000000000E+02   0.0000000000000000E+00   0.0000000000000000E+00
   0.9035486254471142E-01   0.8741661765275280E-02   0.2377979610362752E+00   0.1763000000000000E+02   0.0000000000000000E+00   0.0000000000000000E+00
   0.9045448213070607E-01   0.8750377349714959E-02   0.2377932744778505E+00   0.1763000000000000E+02   0.0000000000000000E+00   0.0000000000000000E+00
   0.9055410172063870E-01   0.8759092934499165E-02   0.2377885871388427E+00   0.1763000000000000E+02   0.0000000000000000E+00   0.0000000000000000E+00
   0.9065372131464289E-01   0.8767808519639585E-02   0.2377838990498937E+00   0.1763000000000000E+02   0.0000000000000000E+00   0.0000000000000000E+00
   0.9075334091285675E-01   0.8776524105148306E-02   0.2377792102422371E+00   0.1763000000000000E+02   0.0000000000000000E+00   0.0000000000000000E+00
   0.9085296051542260E-01   0.8785239691037774E-02   0.2377745207460581E+00   0.1763000000000000E+02   0.0000000000000000E+00   0.0000000000000000E+00
   0.9095258012248872E-01   0.8793955277320967E-02   0.2377698305906463E+00   0.1763000000000000E+02   0.0000000000000000E+00   0.0000000000000000E+00
   0.9105219973420688E-01   0.8802670864011162E-02   0.2377651398035773E+00   0.1763000000000000E+02   0.0000000000000000E+00   0.0000000000000000E+00
   0.9115181935073485E-01   0.8811386451122158E-02   0.2377604484113655E+00   0.1763000000000000E+02   0.0000000000000000E+00   0.0000000000000000E+00
   0.9125143897223632E-01   0.8820102038668280E-02   0.2377557564394709E+00   0.1763000000000000E+02   0.0000000000000000E+00   0.0000000000000000E+00
   0.9135105859887920E-01   0.8828817626664218E-02   0.2377510639103912E+00   0.1763000000000000E+02   0.0000000000000000E+00   0.0000000000000000E+00
   0.9145067823083806E-01   0.8837533215125244E-02   0.2377463708452500E+00   0.1763000000000000E+02   0.0000000000000000E+00   0.0000000000000000E+00
   0.9155029786829273E-01   0.8846248804067088E-02   0.2377416772625120E+00   0.1763000000000000E+02   0.0000000000000000E+00   0.0000000000000000E+00
   0.9164991751143006E-01   0.8854964393506101E-02   0.2377369831786924E+00   0.1763000000000000E+02   0.0000000000000000E+00   0.0000000000000000E+00
   0.9174953716044248E-01   0.8863679983459121E-02   0.2377322886089296E+00   0.1763000000000000E+02   0.0000000000000000E+00   0.0000000000000000E+00
   0.9184915681552874E-01   0.8872395573943530E-02   0.2377275935663423E+00   0.1763000000000000E+02   0.0000000000000000E+00   0.0000000000000000E+00
   0.9194877647689570E-01   0.8881111164977432E-02   0.2377228980618094E+00   0.1763000000000000E+02   0.0000000000000000E+00   0.0000000000000000E+00
   0.9204839614475470E-01   0.8889826756579311E-02   0.2377182021052255E+00   0.1763000000000000E+02   0.0000000000000000E+00   0.0000000000000000E+00
   0.9214801581932694E-01   0.8898542348768525E-02   0.2377135057048043E+00   0.1763000000000000E+02   0.0000000000000000E+00   0.0000000000000000E+00
   0.9224763550083924E-01   0.8907257941564913E-02   0.2377088088675836E+00   0.1763000000000000E+02   0.0000000000000000E+00   0.0000000000000000E+00
   0.9234725518952748E-01   0.8915973534989116E-02   0.2377041116008649E+00   0.1763000000000000E+02   0.0000000000000000E+00   0.0000000000000000E+00
   0.8656772593418613E-01   0.8428692612203243E-02   0.2380020911274769E+00   0.1762892043247527E+02   0.4523673111892807E-01   0.3955808913765541E-02
   0.8666734470563246E-01   0.8437416545855484E-02   0.2379974232033363E+00   0.1762892085115447E+02   0.4523209619343117E-01   0.3955404862498860E-02
   0.8676696347851034E-01   0.8446140475931695E-02   0.2379927551199071E+00   0.1762892126924934E+02   0.4522746854035501E-01   0.3955001437287358E-02
   0.8686658225285579E-01   0.8454864402439621E-02   0.2379880868816652E+00   0.1762892168676072E+02   0.4522284821861405E-01   0.3954598643172241E-02
   0.8696620102870839E-01   0.8463588325387298E-02   0.2379834184856925E+00   0.1762892210368963E+02   0.4521823528647989E-01   0.3954196485944634E-02
   0.8706581980610700E-01   0.8472312244782707E-02   0.2379787499216240E+00   0.1762892252003712E+02   0.4521362980179165E-01   0.3953794970594495E-02
   0.8716543858509331E-01   0.8481036160634045E-02   0.2379740811720181E+00   0.1762892293580498E+02   0.4520903182040623E-01   0.3953394101712204E-02
   0.8726505736570966E-01   0.8489760072949578E-02   0.2379694122128703E+00   0.1762892335099503E+02   0.4520444139524064E-01   0.3952993885913429E-02
   0.8736467614800127E-01   0.8498483981737798E-02   0.2379647430148796E+00   0.1762892376560912E+02   0.4519985857472322E-01   0.3952594326393024E-02
   0.8746429493201185E-01   0.8507207887007071E-02   0.2379600735431035E+00   0.1762892417964970E+02   0.4519528340431277E-01   0.3952195428521292E-02
   0.8756391371779014E-01   0.8515931788766185E-02   0.2379554037578412E+00   0.1762892459311923E+02   0.4519071592231517E-01   0.3951797196021250E-02
   0.8766353250538375E-01   0.8524655687023817E-02   0.2379507336159707E+00   0.1762892500602030E+02   0.4518615616208473E-01   0.3951399632429695E-02
   0.8776315129484345E-01   0.8533379581788916E-02   0.2379460630710930E+00   0.1762892541835566E+02   0.4518160414998409E-01   0.3951002740964167E-02
   0.8786277008622077E-01   0.8542103473070490E-02   0.2379413920745048E+00   0.1762892583012821E+02   0.4517705990565563E-01   0.3950606523721236E-02
   0.8796238887957068E-01   0.8550827360877833E-02   0.2379367205762914E+00   0.1762892624134071E+02   0.4517252344093797E-01   0.3950210982664334E-02
   0.8806200767494782E-01   0.8559551245220213E-02   0.2379320485256375E+00   0.1762892665199628E+02   0.4516799476089253E-01   0.3949816119030105E-02
   0.8816162647241108E-01   0.8568275126107245E-02   0.2379273758717677E+00   0.1762892706209748E+02   0.4516347386211115E-01   0.3949421933111988E-02
   0.8826124527201890E-01   0.8576999003548505E-02   0.2379227025649062E+00   0.1762892747164744E+02   0.4515896073416090E-01   0.3949028424557189E-02
   0.8836086407383337E-01   0.8585722877553879E-02   0.2379180285568849E+00   0.1762892788064872E+02   0.4515445535881571E-01   0.3948635592907059E-02
   0.8846048287791748E-01   0.8594446748133323E-02   0.2379133538015459E+00   0.1762892828910397E+02   0.4514995771107146E-01   0.3948243436055180E-02
   0.8856010168433855E-01   0.8603170615297157E-02   0.2379086782557628E+00   0.1762892869701571E+02   0.4514546775851426E-01   0.3947851952088193E-02
   0.8865972049316383E-01   0.8611894479055693E-02   0.2379040018796606E+00   0.1762892910438615E+02   0.4514098546266878E-01   0.3947461138029621E-02
   0.8875933930446372E-01   0.8620618339419512E-02   0.2378993246371621E+00   0.1762892951121751E+02   0.4513651077903220E-01   0.3947070990676381E-02
   0.8885895811831150E-01   0.8629342196399424E-02   0.2378946464966338E+00   0.1762892991751157E+02   0.4513204365790068E-01   0.3946681505712342E-02
   0.8895857693478285E-01   0.8638066050006457E-02   0.2378899674307757E+00   0.1762893032327007E+02   0.4512758404477583E-01   0.3946292679051921E-02
   0.8905819575395447E-01   0.8646789900251714E-02   0.2378852874173142E+00   0.1762893072849445E+02   0.4512313188113058E-01   0.3945904505746943E-02
   0.8915781457590803E-01   0.8655513747146714E-02   0.2378806064387757E+00   0.1762893113318600E+02   0.4511868710607142E-01   0.3945516980357869E-02
   0.8925743340072589E-01   0.8664237590703044E-02   0.2378759244826006E+00   0.1762893153734553E+02   0.4511424965496046E-01   0.3945130098115154E-02
   0.8935705222849528E-01   0.8672961430932696E-02   0.2378712415415910E+00   0.1762893194097392E+02   0.4510981946221101E-01   0.3944743852409906E-02
   0.8945667105930453E-01   0.8681685267847758E-02   0.2378665576133363E+00   0.1762893234407180E+02   0.4510539646175716E-01   0.3944358238095298E-02
   0.8955628989324650E-01   0.8690409101460701E-02   0.2378618726999695E+00   0.1762893274663933E+02   0.4510098058662989E-01   0.3943973248870892E-02
   0.8965590873041548E-01   0.8699132931784110E-02   0.2378571868084897E+00   0.1762893314867676E+02   0.4509657177095343E-01   0.3943588879177394E-02
   0.8975552757091096E-01   0.8707856758831022E-02   0.2378524999499884E+00   0.1762893355018410E+02   0.4509216994986885E-01   0.3943205122770325E-02
   0.8985514641483423E-01   0.8716580582614626E-02   0.2378478121394973E+00   0.1762893395116115E+02   0.4508777506063109E-01   0.3942821974143063E-02
   0.8995476526229081E-01   0.8725304403148464E-02   0.2378431233957231E+00   0.1762893435160765E+02   0.4508338704280566E-01   0.3942439427553760E-02
   0.9005438411338966E-01   0.8734028220446374E-02   0.2378384337403758E+00   0.1762893475152330E+02   0.4507900583903842E-01   0.3942057477812289E-02
   0.9015400296824296E-01   0.8742752034522468E-02   0.2378337431977837E+00   0.1762893515090774E+02   0.4507463139544557E-01   0.3941676119824048E-02
   0.9025362182696775E-01   0.8751475845391276E-02   0.2378290517945071E+00   0.1762893554976040E+02   0.4507026366176229E-01   0.3941295348559597E-02
   0.9035324068968389E-01   0.8760199653067565E-02   0.2378243595588668E+00   0.1762893594808094E+02   0.4506590259192599E-01   0.3940915159937046E-02
   0.9045285955651652E-01   0.8768923457566555E-02   0.2378196665203712E+00   0.1762893634586893E+02   0.4506154814374840E-01   0.3940535549662944E-02
   0.9055247842759394E-01   0.8777647258903733E-02   0.2378149727092731E+00   0.1762893674312410E+02   0.4505720027966782E-01   0.3940156514061696E-02
   0.9065209730304927E-01   0.8786371057095005E-02   0.2378102781561344E+00   0.1762893713984612E+02   0.4505285896623277E-01   0.3939778049948863E-02
   0.9075171618302032E-01   0.8795094852156677E-02   0.2378055828914162E+00   0.1762893753603488E+02   0.4504852417427224E-01   0.3939400154216452E-02
   0.9085133506764900E-01   0.8803818644105399E-02   0.2378008869448342E+00   0.1762893793169057E+02   0.4504419587874092E-01   0.3939022824186614E-02
   0.9095095395708325E-01   0.8812542432958353E-02   0.2377961903454586E+00   0.1762893832681308E+02   0.4503987405787340E-01   0.3938646058814508E-02
   0.9105057285147447E-01   0.8821266218733002E-02   0.2377914931215581E+00   0.1762893872140307E+02   0.4503555869435628E-01   0.3938269853871545E-02
   0.9115019175098008E-01   0.8829990001447335E-02   0.2377867952987786E+00   0.1762893911546088E+02   0.4503124977325013E-01   0.3937894210625701E-02
   0.9124981065576335E-01   0.8838713781119847E-02   0.2377820969018364E+00   0.1762893950898743E+02   0.4502694728265774E-01   0.3937519125832896E-02
   0.9134942956599186E-01   0.8847437557769402E-02   0.2377773979535712E+00   0.1762893990198362E+02   0.4502265121294677E-01   0.3937144599429101E-02
   0.9144904848183984E-01   0.8856161331415428E-02   0.2377726984748440E+00   0.1762894029445061E+02   0.4501836155619141E-01   0.3936770630328985E-02
   0.9154866740348670E-01   0.8864885102077809E-02   0.2377679984843066E+00   0.1762894068638990E+02   0.4501407830604445E-01   0.3936397217891893E-02
   0.9164828633111897E-01   0.8873608869777042E-02   0.2377632979987014E+00   0.1762894107780318E+02   0.4500980145660169E-01   0.3936024361858236E-02
   0.9174790526492871E-01   0.8882332634534099E-02   0.2377585970328355E+00   0.1762894146869209E+02   0.4500553100238662E-01   0.3935652061436696E-02
   0.9184752420511431E-01   0.8891056396370492E-02   0.2377538955996999E+00   0.1762894185905881E+02   0.4500126693782240E-01   0.3935280316533842E-02
   0.9194714315188227E-01   0.8899780155308446E-02   0.2377491937104696E+00   0.1762894224890545E+02   0.4499700925638045E-01   0.3934909126591300E-02
   0.9204676210544355E-01   0.8908503911370564E-02   0.2377444913750671E+00   0.1762894263823442E+02   0.4499275795073038E-01   0.3934538490971271E-02
   0.9214638106601901E-01   0.8917227664580304E-02   0.2377397886021280E+00   0.1762894302704816E+02   0.4498851301128904E-01   0.3934168409349171E-02
   0.9224600003383511E-01   0.8925951414961610E-02   0.2377350853990756E+00   0.1762894341534938E+02   0.4498427442735581E-01   0.3933798880826934E-02
   0.9234561900912737E-01   0.8934675162539209E-02   0.2377303817730071E+00   0.1762894380314063E+02   0.4498004218535796E-01   0.3933429904475623E-02
   0.8656613158408179E-01   0.8446916117284662E-02   0.2380425802116476E+00   0.1762887084917037E+02   0.9038057974078731E-01   0.7899732618705810E-02
   0.8666574962440306E-01   0.8455648407734696E-02   0.2380379024572222E+00   0.1762887147556391E+02   0.9037137226736010E-01   0.7898932845873282E-02
   0.8676536766647723E-01   0.8464380690935417E-02   0.2380332245489489E+00   0.1762887210114149E+02   0.9036217922341497E-01   0.7898134295119865E-02
   0.8686498571033996E-01   0.8473112966899121E-02   0.2380285464915377E+00   0.1762887272590707E+02   0.9035300072349561E-01   0.7897336976654869E-02
   0.8696460375603039E-01   0.8481845235638398E-02   0.2380238682823017E+00   0.1762887334986499E+02   0.9034383688213073E-01   0.7896540901465144E-02
   0.8706422180358704E-01   0.8490577497165756E-02   0.2380191899112025E+00   0.1762887397302017E+02   0.9033468781233259E-01   0.7895746080427838E-02
   0.8716383985305116E-01   0.8499309751493926E-02   0.2380145113608119E+00   0.1762887459537801E+02   0.9032555362337050E-01   0.7894952523400405E-02
   0.8726345790446470E-01   0.8508041998635691E-02   0.2380098326089841E+00   0.1762887521694456E+02   0.9031643441880956E-01   0.7894160243374165E-02
   0.8736307595787249E-01   0.8516774238604054E-02   0.2380051536252762E+00   0.1762887583772560E+02   0.9030733029462530E-01   0.7893369248413077E-02
   0.8746269401331785E-01   0.8525506471411873E-02   0.2380004743760734E+00   0.1762887645772787E+02   0.9029824133852181E-01   0.7892579549516927E-02
   0.8756231207084914E-01   0.8534238697072434E-02   0.2379957948223436E+00   0.1762887707695772E+02   0.9028916762682790E-01   0.7891791155678517E-02
   0.8766193013051353E-01   0.8542970915598891E-02   0.2379911149214448E+00   0.1762887769542183E+02   0.9028010922460046E-01   0.7891004075009133E-02
   0.8776154819236147E-01   0.8551703127004671E-02   0.2379864346276354E+00   0.1762887831312668E+02   0.9027106618387039E-01   0.7890218314795716E-02
   0.8786116625644404E-01   0.8560435331303242E-02   0.2379817538931049E+00   0.1762887893007881E+02   0.9026203854314360E-01   0.7889433881348036E-02
   0.8796078432281583E-01   0.8569167528508354E-02   0.2379770726682806E+00   0.1762887954628420E+02   0.9025302632620609E-01   0.7888650779449015E-02
   0.8806040239153114E-01   0.8577899718633717E-02   0.2379723909031346E+00   0.1762888016174905E+02   0.9024402954262714E-01   0.7887869012838562E-02
   0.8816002046264840E-01   0.8586631901693384E-02   0.2379677085475484E+00   0.1762888077647856E+02   0.9023504818647529E-01   0.7887088584016783E-02
   0.8825963853622572E-01   0.8595364077701364E-02   0.2379630255522648E+00   0.1762888139047806E+02   0.9022608223716994E-01   0.7886309493503664E-02
   0.8835925661232476E-01   0.8604096246671956E-02   0.2379583418696564E+00   0.1762888200375201E+02   0.9021713165934010E-01   0.7885531741332457E-02
   0.8845887469100816E-01   0.8612828408619528E-02   0.2379536574542394E+00   0.1762888261630445E+02   0.9020819640381893E-01   0.7884755325452715E-02
   0.8855849277234282E-01   0.8621560563558802E-02   0.2379489722631710E+00   0.1762888322813877E+02   0.9019927640747261E-01   0.7883980242594619E-02
   0.8865811085639563E-01   0.8630292711504483E-02   0.2379442862570006E+00   0.1762888383925784E+02   0.9019037159473198E-01   0.7883206488407929E-02
   0.8875772894323664E-01   0.8639024852471531E-02   0.2379395994000843E+00   0.1762888444966379E+02   0.9018148187851038E-01   0.7882434057162673E-02
   0.8885734703293868E-01   0.8647756986475139E-02   0.2379349116608938E+00   0.1762888505935812E+02   0.9017260716114310E-01   0.7881662941703038E-02
   0.8895696512557705E-01   0.8656489113530695E-02   0.2379302230125276E+00   0.1762888566834173E+02   0.9016374733582320E-01   0.7880893134201077E-02
   0.8905658322122814E-01   0.8665221233653661E-02   0.2379255334327006E+00   0.1762888627661482E+02   0.9015490228797655E-01   0.7880124625939448E-02
   0.8915620131997316E-01   0.8673953346859909E-02   0.2379208429040827E+00   0.1762888688417703E+02   0.9014607189698792E-01   0.7879357406167480E-02
   0.8925581942189416E-01   0.8682685453165360E-02   0.2379161514140803E+00   0.1762888749102744E+02   0.9013725603681837E-01   0.7878591466238543E-02
   0.8935543752707793E-01   0.8691417552586346E-02   0.2379114589554780E+00   0.1762888809716449E+02   0.9012845457862811E-01   0.7877826792971686E-02
   0.8945505563561247E-01   0.8700149645139271E-02   0.2379067655256235E+00   0.1762888870258647E+02   0.9011966739179711E-01   0.7877063376103758E-02
   0.8955467374759023E-01   0.8708881730840924E-02   0.2379020711266085E+00   0.1762888930729076E+02   0.9011089434498046E-01   0.7876301203722402E-02
   0.8965429186310511E-01   0.8717613809708197E-02   0.2378973757652034E+00   0.1762888991127483E+02   0.9010213530842477E-01   0.7875540263742589E-02
   0.8975390998225627E-01   0.8726345881758428E-02   0.2378926794520580E+00   0.1762889051453568E+02   0.9009339015458030E-01   0.7874780543978359E-02
   0.8985352810514462E-01   0.8735077947009092E-02   0.2378879822020722E+00   0.1762889111707008E+02   0.9008465875952221E-01   0.7874022033131913E-02
   0.8995314623187525E-01   0.8743810005478010E-02   0.2378832840334097E+00   0.1762889171887481E+02   0.9007594100434274E-01   0.7873264719103951E-02
   0.9005276436255681E-01   0.8752542057183298E-02   0.2378785849675395E+00   0.1762889231994650E+02   0.9006723677581292E-01   0.7872508590999710E-02
   0.9015238249730106E-01   0.8761274102143333E-02   0.2378738850283010E+00   0.1762889292028192E+02   0.9005854596748128E-01   0.7871753638096446E-02
   0.9025200063622470E-01   0.8770006140376898E-02   0.2378691842419497E+00   0.1762889351987777E+02   0.9004986848012204E-01   0.7870999849951529E-02
   0.9035161877944722E-01   0.8778738171903009E-02   0.2378644826363352E+00   0.1762889411873112E+02   0.9004120422244018E-01   0.7870247217156824E-02
   0.9045123692709339E-01   0.8787470196741131E-02   0.2378597802405232E+00   0.1762889471683915E+02   0.9003255311120606E-01   0.7869495731027560E-02
   0.9055085507929107E-01   0.8796202214910976E-02   0.2378550770843653E+00   0.1762889531419948E+02   0.9002391507174931E-01   0.7868745383081117E-02
   0.9065047323617310E-01   0.8804934226432680E-02   0.2378503731980436E+00   0.1762889591080997E+02   0.9001529003766008E-01   0.7867996166395745E-02
   0.9075009139787689E-01   0.8813666231326759E-02   0.2378456686116730E+00   0.1762889650666901E+02   0.9000667795091935E-01   0.7867248074052351E-02
   0.9084970956454398E-01   0.8822398229614076E-02   0.2378409633547003E+00   0.1762889710177542E+02   0.8999807876135728E-01   0.7866501100107726E-02
   0.9094932773632193E-01   0.8831130221316010E-02   0.2378362574561032E+00   0.1762889769612847E+02   0.8998949242611204E-01   0.7865755241423892E-02
   0.9104894591336180E-01   0.8839862206454219E-02   0.2378315509427242E+00   0.1762889828972793E+02   0.8998091890975887E-01   0.7865010489861848E-02
   0.9114856409582059E-01   0.8848594185050872E-02   0.2378268438414938E+00   0.1762889888257428E+02   0.8997235818228905E-01   0.7864266846525607E-02
   0.9124818228386129E-01   0.8857326157128644E-02   0.2378221361762732E+00   0.1762889947466825E+02   0.8996381021986311E-01   0.7863524305151246E-02
   0.9134780047765106E-01   0.8866058122710562E-02   0.2378174279697650E+00   0.1762890006601138E+02   0.8995527500265059E-01   0.7862782864995749E-02
   0.9144741867736376E-01   0.8874790081820218E-02   0.2378127192425873E+00   0.1762890065660548E+02   0.8994675251453010E-01   0.7862042523721986E-02
   0.9154703688317847E-01   0.8883522034481646E-02   0.2378080100135901E+00   0.1762890124645302E+02   0.8993824274209196E-01   0.7861303279987056E-02
   0.9164665509528133E-01   0.8892253980719493E-02   0.2378033002994067E+00   0.1762890183555696E+02   0.8992974567331589E-01   0.7860565132979022E-02
   0.9174627331386405E-01   0.8900985920558862E-02   0.2377985901148880E+00   0.1762890242392045E+02   0.8992126129681428E-01   0.7859828081618911E-02
   0.9184589153912465E-01   0.8909717854025398E-02   0.2377938794729894E+00   0.1762890301154729E+02   0.8991278960092634E-01   0.7859092125278230E-02
   0.9194550977126925E-01   0.8918449781145449E-02   0.2377891683850989E+00   0.1762890359844139E+02   0.8990433057238309E-01   0.7858357263309655E-02
   0.9204512801050851E-01   0.8927181701945728E-02   0.2377844568612164E+00   0.1762890418460708E+02   0.8989588419593569E-01   0.7857623495010365E-02
   0.9214474625706290E-01   0.8935913616453803E-02   0.2377797449100316E+00   0.1762890477004876E+02   0.8988745045292597E-01   0.7856890819674663E-02
   0.9224436451115849E-01   0.8944645524697715E-02   0.2377750325393087E+00   0.1762890535477109E+02   0.8987902932128886E-01   0.7856159236075490E-02
   0.9234398277303048E-01   0.8953377426706285E-02   0.2377703197562310E+00   0.1762890593877868E+02   0.8987062077423846E-01   0.7855428742961645E-02
   0.8656453717788457E-01   0.8465140263510917E-02   0.2380968403300687E+00   0.1762984496266971E+02   0.1354337533086215E+00   0.1183200400363905E-01
   0.8666415448705503E-01   0.8473880911052755E-02   0.2380921497456063E+00   0.1762984559069814E+02   0.1354200346313345E+00   0.1183081669966093E-01
   0.8676377179829979E-01   0.8482621547671865E-02   0.2380874590174393E+00   0.1762984621802159E+02   0.1354063374269194E+00   0.1182963118441389E-01
   0.8686338911165409E-01   0.8491362173385102E-02   0.2380827681508171E+00   0.1762984684464956E+02   0.1353926618631034E+00   0.1182844747336990E-01
   0.8696300642715669E-01   0.8500102788209599E-02   0.2380780771431554E+00   0.1762984747059201E+02   0.1353790081082191E+00   0.1182726558296614E-01
   0.8706262374484569E-01   0.8508843392162405E-02   0.2380733859845335E+00   0.1762984809585969E+02   0.1353653763277644E+00   0.1182608552970581E-01
   0.8716224106476193E-01   0.8517583985260776E-02   0.2380686946592938E+00   0.1762984872046407E+02   0.1353517666827352E+00   0.1182490732993987E-01
   0.8726185838694703E-01   0.8526324567522010E-02   0.2380640031429725E+00   0.1762984934441748E+02   0.1353381793250752E+00   0.1182373100274250E-01
   0.8736147571144533E-01   0.8535065138963623E-02   0.2380593114086120E+00   0.1762984996773132E+02   0.1353246143959321E+00   0.1182255656252307E-01
   0.8746109303829987E-01   0.8543805699602974E-02   0.2380546194216757E+00   0.1762985059041840E+02   0.1353110720244862E+00   0.1182138402639718E-01
   0.8756071036755851E-01   0.8552546249457832E-02   0.2380499271439732E+00   0.1762985121249067E+02   0.1352975523230413E+00   0.1182021340969214E-01
   0.8766032769926810E-01   0.8561286788545844E-02   0.2380452345335559E+00   0.1762985183395993E+02   0.1352840553875385E+00   0.1181904472624667E-01
   0.8775994503347866E-01   0.8570027316884903E-02   0.2380405415453003E+00   0.1762985245483748E+02   0.1352705812947528E+00   0.1181787798893330E-01
   0.8785956237024088E-01   0.8578767834492941E-02   0.2380358481318847E+00   0.1762985307513425E+02   0.1352571301015408E+00   0.1181671320874173E-01
   0.8795917970960901E-01   0.8587508341388165E-02   0.2380311542445538E+00   0.1762985369485983E+02   0.1352437018431992E+00   0.1181555039552569E-01
   0.8805879705163688E-01   0.8596248837588728E-02   0.2380264598339235E+00   0.1762985431402364E+02   0.1352302965341181E+00   0.1181438955645098E-01
   0.8815841439638260E-01   0.8604989323113122E-02   0.2380217648502979E+00   0.1762985493263320E+02   0.1352169141658700E+00   0.1181323069731233E-01
   0.8825803174390387E-01   0.8613729797979783E-02   0.2380170692451928E+00   0.1762985555069571E+02   0.1352035547084683E+00   0.1181207382149583E-01
   0.8835764909426196E-01   0.8622470262207430E-02   0.2380123729713945E+00   0.1762985616821653E+02   0.1351902181102610E+00   0.1181091893033914E-01
   0.8845726644751911E-01   0.8631210715814838E-02   0.2380076759837416E+00   0.1762985678520011E+02   0.1351769042989650E+00   0.1180976602333274E-01
   0.8855688380374187E-01   0.8639951158821137E-02   0.2380029782399530E+00   0.1762985740164928E+02   0.1351636131819993E+00   0.1180861509723666E-01